/*--------------------------------*- C++ -*----------------------------------*\
| =========                 |                                                 |
| \\      /  F ield         | OpenFOAM: The Open Source CFD Toolbox           |
|  \\    /   O peration     | Version:  2406                                  |
|   \\  /    A nd           | Website:  www.openfoam.com                      |
|    \\/     M anipulation  |                                                 |
\*---------------------------------------------------------------------------*/
FoamFile
{
    version     2.0;
    format      ascii;
    arch        "LSB;label=32;scalar=64";
    class       volSymmTensorField;
    location    "5000";
    object      bijDelta_KOSST;
}
// * * * * * * * * * * * * * * * * * * * * * * * * * * * * * * * * * * * * * //

dimensions      [0 0 0 0 0 0 0];

internalField   nonuniform List<symmTensor> 
2304
(
(-2.31996e-21 4.5796e-36 1.80075e-35 4.18592e-30 -9.85453e-26 2.31996e-21)
(-2.31354e-21 4.21064e-36 3.8509e-37 3.69728e-29 -2.92469e-25 2.31354e-21)
(-2.30148e-21 7.57947e-37 8.03333e-38 1.00591e-28 -4.81154e-25 2.30148e-21)
(-2.28439e-21 1.28276e-36 2.33617e-38 1.94497e-28 -6.66563e-25 2.28439e-21)
(-2.26281e-21 5.08363e-37 3.23527e-39 3.19532e-28 -8.50318e-25 2.26281e-21)
(-2.23721e-21 5.39678e-37 -1.77009e-38 4.77662e-28 -1.03374e-24 2.23721e-21)
(-2.20796e-21 4.60349e-37 -1.93104e-38 6.7191e-28 -1.21801e-24 2.20796e-21)
(-2.17541e-21 5.17492e-37 -1.62697e-38 9.06366e-28 -1.40418e-24 2.17541e-21)
(-2.13984e-21 3.4415e-37 2.29217e-38 1.18609e-27 -1.59312e-24 2.13984e-21)
(-2.10152e-21 3.74553e-37 -1.83899e-38 1.51725e-27 -1.78564e-24 2.10152e-21)
(-2.06067e-21 4.04974e-37 -8.3307e-39 1.90722e-27 -1.98246e-24 2.06066e-21)
(-2.01749e-21 3.59416e-37 -3.16429e-39 2.36478e-27 -2.18424e-24 2.01748e-21)
(-1.97216e-21 3.24396e-37 1.7633e-38 2.90042e-27 -2.39167e-24 1.97215e-21)
(-1.92484e-21 2.7633e-37 1.88599e-38 3.52676e-27 -2.60546e-24 1.92484e-21)
(-1.87568e-21 2.98852e-37 -1.36843e-38 4.25877e-27 -2.82631e-24 1.87567e-21)
(-1.82479e-21 2.72269e-37 -6.5399e-39 5.11527e-27 -3.05521e-24 1.82479e-21)
(-1.7723e-21 1.88817e-37 2.31759e-38 6.12037e-27 -3.29349e-24 1.77229e-21)
(-1.71827e-21 1.0764e-37 -2.2033e-39 7.30515e-27 -3.5429e-24 1.71826e-21)
(-1.66276e-21 1.60748e-37 -2.08389e-38 8.71263e-27 -3.80617e-24 1.66275e-21)
(-1.60578e-21 1.0431e-37 1.63094e-38 1.04036e-26 -4.08727e-24 1.60577e-21)
(-1.5473e-21 1.009e-37 -1.7442e-38 1.24617e-26 -4.39111e-24 1.54729e-21)
(-1.48723e-21 1.50184e-37 3.98545e-39 1.49613e-26 -4.71706e-24 1.48721e-21)
(-1.42557e-21 9.46133e-38 -1.38684e-38 1.79536e-26 -5.05902e-24 1.42555e-21)
(-1.36243e-21 6.41013e-38 -4.87829e-39 2.15357e-26 -5.41667e-24 1.36241e-21)
(-1.29785e-21 7.54107e-38 -3.82052e-39 2.58781e-26 -5.79528e-24 1.29783e-21)
(-1.23183e-21 8.12938e-38 -3.21848e-39 3.11853e-26 -6.19791e-24 1.2318e-21)
(-1.16436e-21 7.00111e-38 1.10289e-38 3.76517e-26 -6.62107e-24 1.16432e-21)
(-1.09552e-21 4.15271e-38 1.99115e-38 4.546e-26 -7.05694e-24 1.09548e-21)
(-1.0255e-21 3.13327e-38 6.73263e-40 5.48604e-26 -7.50041e-24 1.02544e-21)
(-9.54465e-22 4.31538e-38 -1.27188e-39 6.62127e-26 -7.94942e-24 9.54399e-22)
(-8.82612e-22 3.77489e-38 2.74287e-39 7.99613e-26 -8.4005e-24 8.82533e-22)
(-8.10158e-22 2.66527e-38 -5.1749e-39 9.66125e-26 -8.84658e-24 8.10061e-22)
(-7.37372e-22 2.51069e-38 -7.67216e-39 1.16719e-25 -9.27639e-24 7.37255e-22)
(-6.64604e-22 1.4884e-38 3.28621e-39 1.40856e-25 -9.67438e-24 6.64463e-22)
(-5.92292e-22 9.12883e-39 -2.03812e-40 1.6957e-25 -1.00203e-23 5.92123e-22)
(-5.20981e-22 1.10793e-38 -4.10604e-40 2.03264e-25 -1.02886e-23 5.20778e-22)
(-4.51333e-22 6.64645e-39 -1.74583e-39 2.42045e-25 -1.04491e-23 4.51091e-22)
(-3.84127e-22 4.19928e-39 5.8325e-41 2.8556e-25 -1.04695e-23 3.83842e-22)
(-3.20235e-22 3.51785e-39 8.45162e-40 3.32912e-25 -1.03198e-23 3.19902e-22)
(-2.60563e-22 2.07461e-39 7.32912e-40 3.82801e-25 -9.97983e-24 2.6018e-22)
(-2.0597e-22 6.50931e-40 4.12816e-41 4.33983e-25 -9.44452e-24 2.05536e-22)
(-1.57168e-22 8.26249e-40 -2.47846e-40 4.86018e-25 -8.72642e-24 1.56682e-22)
(-1.14654e-22 1.32632e-39 1.73576e-39 5.40067e-25 -7.85042e-24 1.14114e-22)
(-7.86931e-23 1.30829e-39 1.06376e-39 5.99612e-25 -6.84294e-24 7.80935e-23)
(-4.93826e-23 9.42579e-40 2.4816e-40 6.71652e-25 -5.71986e-24 4.8711e-23)
(-2.67618e-23 3.93744e-40 3.56242e-40 7.70779e-25 -4.47586e-24 2.5991e-23)
(-1.09781e-23 8.66654e-41 2.37268e-40 9.3562e-25 -3.06527e-24 1.00424e-23)
(-2.60861e-24 2.50344e-41 5.48299e-41 1.3043e-24 -1.3043e-24 1.3043e-24)
(-7.92247e-20 8.63579e-35 1.79405e-34 1.35871e-27 -1.03751e-23 7.92247e-20)
(-7.90077e-20 8.45599e-35 1.5792e-35 1.20015e-26 -3.0793e-23 7.90077e-20)
(-7.85993e-20 2.79015e-35 7.36755e-36 3.26547e-26 -5.0662e-23 7.85993e-20)
(-7.8021e-20 3.74538e-35 1.20619e-36 6.31452e-26 -7.01901e-23 7.80209e-20)
(-7.72907e-20 1.79963e-35 1.35107e-36 1.03752e-25 -8.95493e-23 7.72906e-20)
(-7.64236e-20 1.70589e-35 -2.41822e-36 1.5512e-25 -1.0888e-22 7.64234e-20)
(-7.54327e-20 1.50748e-35 1.93376e-37 2.18239e-25 -1.28306e-22 7.54325e-20)
(-7.43294e-20 1.59661e-35 -9.57567e-37 2.94448e-25 -1.47939e-22 7.43291e-20)
(-7.31233e-20 1.11253e-35 1.41292e-36 3.85399e-25 -1.67874e-22 7.31229e-20)
(-7.1823e-20 1.14446e-35 -3.84939e-37 4.93112e-25 -1.88193e-22 7.18225e-20)
(-7.04361e-20 1.20072e-35 -7.62777e-37 6.20002e-25 -2.08974e-22 7.04355e-20)
(-6.89692e-20 1.08496e-35 -1.44169e-36 7.68933e-25 -2.30287e-22 6.89685e-20)
(-6.74284e-20 9.90393e-36 -1.01625e-36 9.43346e-25 -2.52205e-22 6.74275e-20)
(-6.5819e-20 8.36766e-36 2.13063e-37 1.14736e-24 -2.74803e-22 6.58178e-20)
(-6.41456e-20 8.48884e-36 -1.0692e-37 1.38588e-24 -2.98154e-22 6.41442e-20)
(-6.24126e-20 7.88848e-36 -1.50649e-36 1.66505e-24 -3.22362e-22 6.2411e-20)
(-6.06234e-20 5.79366e-36 1.02946e-36 1.99275e-24 -3.47568e-22 6.06214e-20)
(-5.87809e-20 3.53463e-36 5.03527e-37 2.37912e-24 -3.73953e-22 5.87785e-20)
(-5.68867e-20 4.48739e-36 -1.40387e-37 2.83818e-24 -4.01804e-22 5.68839e-20)
(-5.49415e-20 3.04114e-36 8.62091e-37 3.38976e-24 -4.3154e-22 5.49381e-20)
(-5.29439e-20 2.89019e-36 -1.73691e-36 4.06154e-24 -4.63699e-22 5.29398e-20)
(-5.08903e-20 3.88136e-36 7.08417e-37 4.87802e-24 -4.98217e-22 5.08854e-20)
(-4.87811e-20 2.57274e-36 -2.16144e-37 5.85533e-24 -5.34411e-22 4.87752e-20)
(-4.66203e-20 1.82588e-36 -5.02953e-37 7.02504e-24 -5.72241e-22 4.66133e-20)
(-4.44096e-20 1.94185e-36 -7.5192e-37 8.44343e-24 -6.12289e-22 4.44011e-20)
(-4.21484e-20 2.04663e-36 -2.52892e-37 1.01781e-23 -6.54896e-22 4.21382e-20)
(-3.98362e-20 1.78884e-36 3.16906e-37 1.22931e-23 -6.99684e-22 3.98239e-20)
(-3.74761e-20 1.0867e-36 -5.12438e-38 1.48471e-23 -7.45783e-22 3.74613e-20)
(-3.50746e-20 7.67949e-37 -7.37656e-39 1.79217e-23 -7.92637e-22 3.50566e-20)
(-3.26381e-20 1.00107e-36 -7.41042e-38 2.16353e-23 -8.40039e-22 3.26164e-20)
(-3.01733e-20 8.77167e-37 -1.72792e-37 2.61344e-23 -8.87625e-22 3.01471e-20)
(-2.76878e-20 6.41224e-37 -1.86859e-37 3.15858e-23 -9.34635e-22 2.76562e-20)
(-2.51911e-20 6.69229e-37 -3.57035e-37 3.81719e-23 -9.79864e-22 2.51529e-20)
(-2.26954e-20 4.54185e-37 -1.69387e-37 4.60839e-23 -1.02165e-21 2.26493e-20)
(-2.0216e-20 2.56923e-37 3.10547e-38 5.55054e-23 -1.05784e-21 2.01605e-20)
(-1.77717e-20 2.45747e-37 -1.42474e-38 6.65763e-23 -1.0857e-21 1.77051e-20)
(-1.53853e-20 2.08765e-37 -9.12763e-38 7.93403e-23 -1.10199e-21 1.53059e-20)
(-1.30835e-20 1.60993e-37 4.77612e-38 9.36887e-23 -1.10318e-21 1.29898e-20)
(-1.08968e-20 9.75729e-38 4.3699e-38 1.09326e-22 -1.08598e-21 1.07875e-20)
(-8.85711e-21 6.35748e-38 2.62246e-38 1.25806e-22 -1.04807e-21 8.73131e-21)
(-6.99557e-21 3.16008e-38 -4.17232e-39 1.42676e-22 -9.88809e-22 6.85289e-21)
(-5.33872e-21 1.93604e-38 6.84359e-38 1.59726e-22 -9.09518e-22 5.179e-21)
(-3.9056e-21 3.93086e-38 -6.48778e-40 1.77241e-22 -8.12907e-22 3.72836e-21)
(-2.7066e-21 2.07378e-38 4.49607e-38 1.96132e-22 -7.01699e-22 2.51046e-21)
(-1.74592e-21 2.26165e-38 1.08053e-38 2.17942e-22 -5.77071e-22 1.52798e-21)
(-1.03601e-21 1.5366e-38 8.74345e-39 2.46947e-22 -4.41425e-22 7.89062e-22)
(-3.21493e-22 4.68296e-40 7.59693e-39 1.60747e-22 -1.60747e-22 1.60747e-22)
(-1.09781e-23 1.32153e-40 1.71583e-40 1.00424e-23 -3.06527e-24 9.35619e-25)
(-6.42924e-19 3.84647e-34 -6.78889e-34 3.34632e-26 -1.46678e-22 6.42924e-19)
(-6.41355e-19 3.4261e-34 1.26424e-34 2.95657e-25 -4.35455e-22 6.41355e-19)
(-6.384e-19 1.14465e-34 6.8206e-35 8.04843e-25 -7.16806e-22 6.38399e-19)
(-6.34207e-19 1.95392e-34 1.71821e-35 1.55742e-24 -9.93844e-22 6.34206e-19)
(-6.28903e-19 9.05279e-35 1.57843e-35 2.5612e-24 -1.26915e-21 6.289e-19)
(-6.22589e-19 7.46662e-35 -1.25032e-36 3.83324e-24 -1.54484e-21 6.22585e-19)
(-6.15354e-19 6.78286e-35 1.86686e-35 5.3994e-24 -1.82278e-21 6.15348e-19)
(-6.07271e-19 6.49727e-35 2.3338e-35 7.2945e-24 -2.10468e-21 6.07263e-19)
(-5.98404e-19 3.38905e-35 2.86163e-35 9.5615e-24 -2.39198e-21 5.98394e-19)
(-5.88807e-19 3.93674e-35 -2.85963e-36 1.22529e-23 -2.68597e-21 5.88795e-19)
(-5.78529e-19 4.48516e-35 2.13248e-35 1.54315e-23 -2.98786e-21 5.78514e-19)
(-5.67611e-19 4.21417e-35 -1.30572e-35 1.91719e-23 -3.29876e-21 5.67592e-19)
(-5.5609e-19 4.16963e-35 4.12755e-35 2.35638e-23 -3.61981e-21 5.56066e-19)
(-5.43998e-19 3.49813e-35 2.45159e-36 2.8715e-23 -3.95223e-21 5.43969e-19)
(-5.31364e-19 3.49301e-35 -2.43638e-37 3.47532e-23 -4.29713e-21 5.31329e-19)
(-5.18212e-19 3.2811e-35 -8.81505e-36 4.18391e-23 -4.65615e-21 5.1817e-19)
(-5.04563e-19 2.24848e-35 5.21178e-36 5.0178e-23 -5.03145e-21 5.04513e-19)
(-4.90431e-19 6.28692e-36 4.31749e-35 6.00334e-23 -5.42574e-21 4.90371e-19)
(-4.75826e-19 1.07166e-35 1.19459e-35 7.17683e-23 -5.84329e-21 4.75754e-19)
(-4.60746e-19 2.41717e-36 7.58213e-36 8.58964e-23 -6.2904e-21 4.6066e-19)
(-4.45178e-19 2.0503e-36 -5.77739e-36 1.03154e-22 -6.7758e-21 4.45075e-19)
(-4.29079e-19 7.98193e-36 6.21566e-36 1.24201e-22 -7.29907e-21 4.28954e-19)
(-4.12444e-19 -1.0138e-36 5.45376e-36 1.4944e-22 -7.8494e-21 4.12294e-19)
(-3.95306e-19 -3.63643e-36 -1.11359e-35 1.79697e-22 -8.42632e-21 3.95126e-19)
(-3.77671e-19 -3.48039e-37 1.32899e-37 2.16481e-22 -9.03945e-21 3.77455e-19)
(-3.59529e-19 2.32094e-36 -2.60378e-36 2.61621e-22 -9.69495e-21 3.59268e-19)
(-3.40862e-19 1.08698e-36 4.34805e-36 3.16844e-22 -1.03875e-20 3.40545e-19)
(-3.21685e-19 -2.61596e-36 4.48728e-36 3.83692e-22 -1.11032e-20 3.21301e-19)
(-3.02052e-19 -3.21157e-36 3.28626e-36 4.64329e-22 -1.18337e-20 3.01588e-19)
(-2.82015e-19 -1.06896e-36 -5.15767e-37 5.61982e-22 -1.25766e-20 2.81453e-19)
(-2.61624e-19 -6.88095e-37 -6.04694e-37 6.80637e-22 -1.3327e-20 2.60944e-19)
(-2.4094e-19 -6.21253e-37 1.50107e-36 8.24854e-22 -1.40734e-20 2.40115e-19)
(-2.20039e-19 -5.18534e-37 9.13269e-36 9.99662e-22 -1.47975e-20 2.19039e-19)
(-1.99024e-19 -1.38848e-36 3.26367e-36 1.21043e-21 -1.54739e-20 1.97814e-19)
(-1.78025e-19 -2.49078e-36 4.95598e-36 1.46249e-21 -1.60692e-20 1.76562e-19)
(-1.572e-19 -1.75062e-36 5.53815e-37 1.7602e-21 -1.6541e-20 1.5544e-19)
(-1.36747e-19 -8.25265e-37 -2.30477e-37 2.10547e-21 -1.6837e-20 1.34642e-19)
(-1.16901e-19 -7.33887e-37 1.45286e-36 2.49605e-21 -1.68985e-20 1.14405e-19)
(-9.79328e-20 -8.77195e-37 5.82047e-37 2.92411e-21 -1.66678e-20 9.50087e-20)
(-8.01433e-20 -8.7983e-37 4.11125e-37 3.37633e-21 -1.60994e-20 7.6767e-20)
(-6.38377e-20 -4.43948e-37 -9.32196e-37 3.83689e-21 -1.51729e-20 6.00008e-20)
(-4.92827e-20 -3.64152e-37 -2.89507e-38 4.29227e-21 -1.38964e-20 4.49904e-20)
(-3.66347e-20 3.75772e-37 -1.18371e-36 4.72906e-21 -1.22835e-20 3.19056e-20)
(-2.58104e-20 4.66882e-38 6.88695e-38 5.09046e-21 -1.02701e-20 2.07199e-20)
(-1.62227e-20 4.32013e-38 1.02072e-37 5.05386e-21 -7.51303e-21 1.11688e-20)
(-7.03381e-21 1.38413e-37 -4.74223e-38 3.51691e-21 -3.51691e-21 3.5169e-21)
(-1.03601e-21 1.26771e-38 1.13712e-38 7.89062e-22 -4.41425e-22 2.46946e-22)
(-2.67618e-23 1.3237e-40 4.85737e-40 2.5991e-23 -4.47586e-24 7.70778e-25)
(-2.11416e-18 6.38358e-34 -1.88035e-33 2.46466e-25 -7.21852e-22 2.11416e-18)
(-2.11052e-18 7.67857e-34 5.40027e-34 2.17902e-24 -2.14449e-21 2.11052e-18)
(-2.10363e-18 4.8141e-34 2.40224e-34 5.93912e-24 -3.53464e-21 2.10363e-18)
(-2.09383e-18 5.45935e-34 5.38359e-35 1.15128e-23 -4.90977e-21 2.09382e-18)
(-2.08137e-18 3.52002e-34 7.47376e-36 1.89754e-23 -6.28447e-21 2.08135e-18)
(-2.06645e-18 2.79687e-34 -6.968e-35 2.84756e-23 -7.6709e-21 2.06643e-18)
(-2.04924e-18 2.57467e-34 8.7774e-35 4.02331e-23 -9.07996e-21 2.0492e-18)
(-2.02986e-18 2.29616e-34 4.19248e-35 5.45411e-23 -1.05218e-20 2.02981e-18)
(-2.00842e-18 1.49689e-34 3.43502e-35 7.17616e-23 -1.20051e-20 2.00835e-18)
(-1.985e-18 1.50199e-34 -2.81678e-35 9.23378e-23 -1.35382e-20 1.98491e-18)
(-1.95966e-18 1.56678e-34 6.22085e-36 1.16802e-22 -1.51288e-20 1.95954e-18)
(-1.93245e-18 1.58999e-34 -1.16481e-34 1.45792e-22 -1.67843e-20 1.9323e-18)
(-1.90341e-18 1.59859e-34 -5.21378e-35 1.80074e-22 -1.85127e-20 1.90323e-18)
(-1.87257e-18 1.24349e-34 1.67992e-35 2.20575e-22 -2.03222e-20 1.87235e-18)
(-1.83994e-18 1.1782e-34 -4.15558e-35 2.68399e-22 -2.22208e-20 1.83967e-18)
(-1.80552e-18 1.14754e-34 6.04413e-35 3.24935e-22 -2.42193e-20 1.8052e-18)
(-1.76933e-18 9.74068e-35 1.00319e-35 3.91955e-22 -2.63314e-20 1.76893e-18)
(-1.73132e-18 4.9237e-35 8.396e-35 4.71721e-22 -2.85741e-20 1.73085e-18)
(-1.69149e-18 3.7302e-35 8.94722e-35 5.67332e-22 -3.09728e-20 1.69092e-18)
(-1.64976e-18 1.87178e-35 3.29627e-35 6.83139e-22 -3.35641e-20 1.64908e-18)
(-1.60606e-18 2.01985e-35 9.415e-35 8.25635e-22 -3.64051e-20 1.60523e-18)
(-1.56015e-18 2.65902e-35 8.28365e-35 1.00085e-21 -3.95029e-20 1.55914e-18)
(-1.51193e-18 1.34422e-36 2.39812e-35 1.21243e-21 -4.27975e-20 1.51071e-18)
(-1.46145e-18 2.03848e-36 3.26652e-35 1.46775e-21 -4.62914e-20 1.45999e-18)
(-1.40866e-18 8.98541e-36 2.01192e-35 1.78055e-21 -5.00502e-20 1.40688e-18)
(-1.35343e-18 5.35018e-36 1.03428e-34 2.16783e-21 -5.41231e-20 1.35126e-18)
(-1.29556e-18 4.10121e-36 1.06816e-35 2.64606e-21 -5.84905e-20 1.29292e-18)
(-1.23499e-18 -5.51302e-36 -1.21422e-36 3.22971e-21 -6.30733e-20 1.23176e-18)
(-1.17183e-18 -8.50432e-36 2.02679e-36 3.93932e-21 -6.78284e-20 1.16789e-18)
(-1.10614e-18 -3.77657e-36 -9.41425e-36 4.80619e-21 -7.27546e-20 1.10134e-18)
(-1.038e-18 7.68575e-36 -6.35339e-35 5.8692e-21 -7.78319e-20 1.03213e-18)
(-9.67517e-19 9.56734e-36 2.93999e-36 7.17352e-21 -8.30002e-20 9.60343e-19)
(-8.94858e-19 3.73834e-36 3.42598e-35 8.77016e-21 -8.8154e-20 8.86088e-19)
(-8.20309e-19 -1.36347e-36 6.18096e-36 1.07156e-20 -9.3141e-20 8.09593e-19)
(-7.44261e-19 -8.11116e-36 1.64115e-35 1.30692e-20 -9.77553e-20 7.31192e-19)
(-6.67236e-19 -6.01502e-36 3.79176e-36 1.58856e-20 -1.01721e-19 6.5135e-19)
(-5.89905e-19 1.03021e-38 -3.19307e-36 1.91996e-20 -1.04677e-19 5.70705e-19)
(-5.13124e-19 6.91385e-36 -1.92605e-35 2.30061e-20 -1.06187e-19 4.90118e-19)
(-4.37933e-19 7.769e-37 2.56719e-36 2.72353e-20 -1.05761e-19 4.10698e-19)
(-3.65531e-19 -9.28228e-37 2.455e-36 3.17279e-20 -1.02912e-19 3.33803e-19)
(-2.97141e-19 -9.21043e-37 2.77835e-36 3.62136e-20 -9.72065e-20 2.60927e-19)
(-2.33578e-19 -3.81911e-36 9.59784e-36 4.02347e-20 -8.81993e-20 1.93343e-19)
(-1.74334e-19 -2.6186e-36 5.65407e-36 4.27581e-20 -7.50062e-20 1.31576e-19)
(-1.16614e-19 -6.67567e-37 2.13342e-36 4.09474e-20 -5.56629e-20 7.56666e-20)
(-5.90828e-20 3.90873e-37 2.52392e-37 2.95414e-20 -2.95414e-20 2.95414e-20)
(-1.62227e-20 1.35886e-37 7.33344e-38 1.11688e-20 -7.51302e-21 5.05386e-21)
(-1.74592e-21 1.34836e-38 2.19267e-38 1.52798e-21 -5.77071e-22 2.17942e-22)
(-4.93826e-23 2.31909e-40 8.20097e-40 4.87109e-23 -5.71986e-24 6.71651e-25)
(-3.73863e-18 -7.87794e-35 -2.242e-33 8.68254e-25 -1.80169e-21 3.73863e-18)
(-3.73518e-18 5.16397e-34 7.27777e-34 7.68233e-24 -5.35676e-21 3.73517e-18)
(-3.72865e-18 9.43332e-34 6.16244e-34 2.09706e-23 -8.84259e-21 3.72863e-18)
(-3.7193e-18 7.83271e-34 1.4843e-34 4.07389e-23 -1.23093e-20 3.71926e-18)
(-3.70733e-18 6.96643e-34 2.10112e-34 6.7331e-23 -1.57992e-20 3.70726e-18)
(-3.69289e-18 5.45439e-34 3.9731e-34 1.01376e-22 -1.93484e-20 3.69278e-18)
(-3.67606e-18 4.82467e-34 2.50761e-34 1.43783e-22 -2.29899e-20 3.67591e-18)
(-3.6569e-18 4.19707e-34 5.14197e-35 1.95759e-22 -2.67551e-20 3.6567e-18)
(-3.63544e-18 3.20316e-34 3.24056e-34 2.58799e-22 -3.06722e-20 3.63519e-18)
(-3.61169e-18 2.81018e-34 -1.23148e-34 3.34745e-22 -3.4769e-20 3.61136e-18)
(-3.58563e-18 2.95149e-34 -4.7738e-35 4.25827e-22 -3.90727e-20 3.5852e-18)
(-3.55721e-18 3.07463e-34 -4.50646e-35 5.34731e-22 -4.36104e-20 3.55668e-18)
(-3.52639e-18 3.14192e-34 -2.5673e-36 6.64726e-22 -4.84111e-20 3.52572e-18)
(-3.49308e-18 2.44722e-34 9.82774e-35 8.1979e-22 -5.35063e-20 3.49226e-18)
(-3.4572e-18 2.05683e-34 2.40251e-34 1.0047e-21 -5.89273e-20 3.45619e-18)
(-3.41865e-18 2.13247e-34 5.05427e-35 1.22548e-21 -6.47145e-20 3.41742e-18)
(-3.37729e-18 2.20576e-34 -6.66381e-35 1.48981e-21 -7.09177e-20 3.3758e-18)
(-3.333e-18 1.3901e-34 4.0884e-34 1.80749e-21 -7.75957e-20 3.33119e-18)
(-3.28559e-18 6.34004e-35 3.52663e-34 2.19175e-21 -8.48316e-20 3.2834e-18)
(-3.23489e-18 6.41682e-35 7.30112e-35 2.66088e-21 -9.27394e-20 3.23223e-18)
(-3.18071e-18 5.14606e-35 4.36125e-34 3.24336e-21 -1.01517e-19 3.17746e-18)
(-3.12242e-18 3.52767e-35 2.91885e-35 3.96733e-21 -1.11229e-19 3.11845e-18)
(-3.05965e-18 4.55788e-35 -1.4026e-34 4.85019e-21 -1.21722e-19 3.0548e-18)
(-2.99244e-18 1.91918e-35 5.04501e-34 5.92633e-21 -1.33038e-19 2.98651e-18)
(-2.92046e-18 1.35763e-35 1.45127e-34 7.25919e-21 -1.45422e-19 2.9132e-18)
(-2.84329e-18 -5.77608e-36 2.49404e-34 8.92983e-21 -1.59092e-19 2.83436e-18)
(-2.76023e-18 9.14839e-36 -1.69968e-34 1.10206e-20 -1.74063e-19 2.74921e-18)
(-2.67079e-18 5.76167e-36 1.03057e-35 1.36038e-20 -1.90126e-19 2.65719e-18)
(-2.57493e-18 -1.11603e-35 2.30522e-35 1.67833e-20 -2.07206e-19 2.55815e-18)
(-2.4724e-18 -1.80492e-36 -1.33903e-35 2.07204e-20 -2.25388e-19 2.45168e-18)
(-2.3629e-18 1.15327e-35 8.88937e-35 2.56173e-20 -2.44693e-19 2.33728e-18)
(-2.24616e-18 1.755e-35 5.02038e-36 3.17157e-20 -2.65015e-19 2.21445e-18)
(-2.12201e-18 3.01978e-35 -1.50063e-34 3.9298e-20 -2.86089e-19 2.08271e-18)
(-1.99045e-18 4.57316e-35 -1.90848e-34 4.86923e-20 -3.07488e-19 1.94175e-18)
(-1.85163e-18 2.9499e-36 -1.50075e-36 6.02706e-20 -3.28582e-19 1.79136e-18)
(-1.70589e-18 -1.50434e-35 2.01313e-35 7.44174e-20 -3.48439e-19 1.63147e-18)
(-1.55371e-18 -8.91734e-37 5.45814e-36 9.14542e-20 -3.65691e-19 1.46226e-18)
(-1.39579e-18 2.02093e-35 -4.55147e-36 1.11509e-19 -3.78429e-19 1.28428e-18)
(-1.23277e-18 1.56161e-35 6.07542e-37 1.34267e-19 -3.84048e-19 1.0985e-18)
(-1.06494e-18 8.01195e-36 7.30652e-36 1.58517e-19 -3.79056e-19 9.06423e-19)
(-8.91383e-19 -3.64156e-36 2.63428e-35 1.81313e-19 -3.58811e-19 7.1007e-19)
(-7.08354e-19 -1.66189e-35 3.03969e-35 1.96287e-19 -3.17036e-19 5.12067e-19)
(-5.08986e-19 5.247e-36 -7.28503e-36 1.90797e-19 -2.46393e-19 3.18189e-19)
(-2.96504e-19 9.72746e-36 -8.28125e-36 1.48252e-19 -1.48252e-19 1.48252e-19)
(-1.16614e-19 1.82473e-36 -7.39915e-37 7.56666e-20 -5.56628e-20 4.09474e-20)
(-2.58104e-20 1.88556e-37 -9.88663e-39 2.07199e-20 -1.027e-20 5.09045e-21)
(-2.70659e-21 -4.42802e-39 3.80351e-38 2.51046e-21 -7.01699e-22 1.96132e-22)
(-7.86931e-23 2.81378e-40 1.66325e-39 7.80935e-23 -6.84293e-24 5.99611e-25)
(-4.67117e-18 -1.49108e-33 -2.64905e-33 2.04193e-24 -3.0884e-21 4.67117e-18)
(-4.66932e-18 -4.61962e-34 1.21663e-33 1.80789e-23 -9.18781e-21 4.6693e-18)
(-4.66579e-18 1.14817e-33 7.01243e-34 4.9413e-23 -1.51838e-20 4.66574e-18)
(-4.6607e-18 7.04e-34 4.13147e-34 9.61681e-23 -2.11708e-20 4.66061e-18)
(-4.65413e-18 8.84927e-34 3.43408e-34 1.59312e-22 -2.72293e-20 4.65397e-18)
(-4.64609e-18 7.11462e-34 2.37169e-34 2.40544e-22 -3.34295e-20 4.64585e-18)
(-4.6366e-18 5.76405e-34 9.9175e-34 3.42287e-22 -3.98363e-20 4.63626e-18)
(-4.62562e-18 4.97186e-34 -1.47652e-35 4.67749e-22 -4.65125e-20 4.62516e-18)
(-4.61311e-18 4.35772e-34 2.68724e-34 6.20932e-22 -5.35168e-20 4.61249e-18)
(-4.599e-18 3.35436e-34 -5.65716e-34 8.06788e-22 -6.09079e-20 4.59819e-18)
(-4.5832e-18 3.97311e-34 -5.03692e-34 1.03136e-21 -6.87449e-20 4.58217e-18)
(-4.5656e-18 3.93183e-34 9.28514e-35 1.30198e-21 -7.70884e-20 4.5643e-18)
(-4.54609e-18 4.43945e-34 -8.92202e-34 1.62765e-21 -8.60046e-20 4.54446e-18)
(-4.52452e-18 3.38537e-34 5.89454e-34 2.01939e-21 -9.55652e-20 4.5225e-18)
(-4.50073e-18 2.25597e-34 -1.30664e-34 2.49055e-21 -1.05845e-19 4.49824e-18)
(-4.47453e-18 2.5838e-34 -3.39099e-35 3.05801e-21 -1.16935e-19 4.47147e-18)
(-4.44573e-18 3.19703e-34 9.52016e-35 3.74327e-21 -1.28948e-19 4.44199e-18)
(-4.4141e-18 2.2781e-34 2.1744e-34 4.57356e-21 -1.42012e-19 4.40953e-18)
(-4.37942e-18 8.96641e-35 4.80555e-35 5.58525e-21 -1.56298e-19 4.37384e-18)
(-4.34146e-18 1.08705e-34 1.12671e-34 6.82678e-21 -1.72022e-19 4.33463e-18)
(-4.30016e-18 7.70451e-35 8.29111e-35 8.37704e-21 -1.89611e-19 4.29178e-18)
(-4.25583e-18 6.03839e-35 -8.55156e-35 1.03187e-20 -2.09304e-19 4.24551e-18)
(-4.20803e-18 1.19419e-34 3.53739e-34 1.27032e-20 -2.30855e-19 4.19533e-18)
(-4.15577e-18 5.30342e-35 2.66357e-34 1.56314e-20 -2.54394e-19 4.14013e-18)
(-4.09855e-18 9.20413e-36 6.33992e-35 1.92868e-20 -2.80492e-19 4.07926e-18)
(-4.03587e-18 -1.98403e-35 2.23965e-34 2.39102e-20 -3.09721e-19 4.01196e-18)
(-3.96649e-18 -1.97419e-35 -2.47349e-35 2.97567e-20 -3.42263e-19 3.93673e-18)
(-3.88948e-18 7.35386e-35 -2.73385e-34 3.70413e-20 -3.77755e-19 3.85244e-18)
(-3.80505e-18 -3.14766e-35 3.86716e-34 4.6082e-20 -4.16198e-19 3.75897e-18)
(-3.71275e-18 -6.24586e-36 5.83631e-35 5.73882e-20 -4.58012e-19 3.65537e-18)
(-3.61196e-18 3.49165e-35 4.13028e-35 7.15985e-20 -5.03472e-19 3.54036e-18)
(-3.50201e-18 -1.33416e-35 5.44425e-35 8.9491e-20 -5.52621e-19 3.41252e-18)
(-3.38226e-18 7.70772e-37 -1.47239e-35 1.11998e-19 -6.05198e-19 3.27027e-18)
(-3.25221e-18 1.03447e-34 -2.0461e-34 1.40244e-19 -6.60631e-19 3.11197e-18)
(-3.11133e-18 4.98446e-35 -3.13272e-35 1.75578e-19 -7.17951e-19 2.93575e-18)
(-2.95878e-18 1.17651e-35 9.73989e-36 2.19526e-19 -7.7546e-19 2.73926e-18)
(-2.793e-18 -8.08818e-35 2.73297e-34 2.73554e-19 -8.30183e-19 2.51945e-18)
(-2.61111e-18 2.00651e-35 1.24208e-35 3.38576e-19 -8.7717e-19 2.27254e-18)
(-2.40672e-18 8.6151e-35 -1.10159e-34 4.13668e-19 -9.07998e-19 1.99305e-18)
(-2.16678e-18 3.44831e-35 8.04186e-37 4.9293e-19 -9.08346e-19 1.67385e-18)
(-1.86813e-18 1.47753e-35 1.92154e-35 5.59459e-19 -8.55658e-19 1.30868e-18)
(-1.48055e-18 -4.27894e-35 6.15229e-35 5.77655e-19 -7.22192e-19 9.02895e-19)
(-9.98128e-19 -9.75164e-36 1.27034e-35 4.99064e-19 -4.99064e-19 4.99064e-19)
(-5.08986e-19 1.29839e-35 -8.57605e-36 3.18189e-19 -2.46393e-19 1.90796e-19)
(-1.74334e-19 7.65989e-36 -4.46968e-36 1.31576e-19 -7.50062e-20 4.27581e-20)
(-3.66347e-20 6.16853e-37 -3.70963e-37 3.19056e-20 -1.22835e-20 4.72905e-21)
(-3.90559e-21 1.50346e-37 3.73907e-39 3.72835e-21 -8.12906e-22 1.77241e-22)
(-1.14654e-22 8.39426e-41 2.05222e-39 1.14114e-22 -7.85041e-24 5.40066e-25)
(-4.66517e-18 -2.63839e-33 -4.19591e-33 3.65024e-24 -4.12661e-21 4.66516e-18)
(-4.66558e-18 -1.53516e-33 6.22018e-34 3.23466e-23 -1.22847e-20 4.66555e-18)
(-4.66637e-18 9.71358e-34 3.27194e-35 8.85573e-23 -2.03281e-20 4.66629e-18)
(-4.66753e-18 3.96405e-34 1.00455e-33 1.72768e-22 -2.83967e-20 4.66736e-18)
(-4.66906e-18 7.68237e-34 4.3029e-34 2.87102e-22 -3.66117e-20 4.66877e-18)
(-4.67097e-18 6.72451e-34 -8.19283e-35 4.3515e-22 -4.50819e-20 4.67053e-18)
(-4.67328e-18 5.47705e-34 3.31542e-34 6.21997e-22 -5.39109e-20 4.67266e-18)
(-4.67604e-18 4.24032e-34 2.21188e-34 8.54388e-22 -6.32015e-20 4.67519e-18)
(-4.67928e-18 4.13907e-34 9.17629e-35 1.14085e-21 -7.3055e-20 4.67814e-18)
(-4.68306e-18 2.65056e-34 1.49673e-34 1.49206e-21 -8.35772e-20 4.68156e-18)
(-4.68742e-18 4.34246e-34 -9.22762e-34 1.92126e-21 -9.48792e-20 4.6855e-18)
(-4.69246e-18 4.02228e-34 9.22361e-34 2.44483e-21 -1.07081e-19 4.69002e-18)
(-4.69825e-18 4.24682e-34 3.95833e-34 3.08323e-21 -1.20317e-19 4.69516e-18)
(-4.70487e-18 3.77013e-34 6.50848e-34 3.86199e-21 -1.34741e-19 4.70101e-18)
(-4.71244e-18 1.3134e-34 1.04865e-33 4.81265e-21 -1.5052e-19 4.70763e-18)
(-4.72107e-18 1.91792e-34 1.24838e-34 5.97577e-21 -1.67858e-19 4.71509e-18)
(-4.73089e-18 3.5205e-34 -4.4274e-34 7.40346e-21 -1.87003e-19 4.72348e-18)
(-4.74203e-18 2.52116e-34 1.76426e-34 9.16233e-21 -2.0824e-19 4.73287e-18)
(-4.75463e-18 1.15353e-34 1.59341e-34 1.13409e-20 -2.31934e-19 4.74329e-18)
(-4.76882e-18 1.4064e-34 1.74115e-34 1.40515e-20 -2.58479e-19 4.75477e-18)
(-4.78455e-18 5.45676e-35 3.23263e-34 1.74338e-20 -2.88286e-19 4.76712e-18)
(-4.77793e-18 1.59577e-34 -6.09491e-34 2.15602e-20 -3.20232e-19 4.75637e-18)
(-4.744e-18 2.37455e-34 2.40356e-35 2.65694e-20 -3.54033e-19 4.71743e-18)
(-4.7067e-18 4.87615e-35 2.08512e-34 3.28048e-20 -3.91569e-19 4.67389e-18)
(-4.66577e-18 -1.93301e-35 1.30853e-34 4.06031e-20 -4.33354e-19 4.62516e-18)
(-4.62133e-18 4.6084e-35 -3.18308e-34 5.04938e-20 -4.80415e-19 4.57084e-18)
(-4.57349e-18 -2.5865e-35 1.49972e-34 6.30504e-20 -5.33277e-19 4.51044e-18)
(-4.52131e-18 1.44309e-34 -3.99844e-34 7.86876e-20 -5.91253e-19 4.44262e-18)
(-4.46437e-18 6.2678e-35 1.82728e-34 9.80677e-20 -6.54365e-19 4.3663e-18)
(-4.40268e-18 -9.46609e-35 6.67665e-34 1.22316e-19 -7.23573e-19 4.28036e-18)
(-4.33603e-18 3.73987e-35 1.39785e-34 1.52793e-19 -7.99482e-19 4.18324e-18)
(-4.26436e-18 -1.49784e-35 2.9936e-34 1.91149e-19 -8.82379e-19 4.07321e-18)
(-4.1874e-18 -1.20242e-34 6.67034e-34 2.39343e-19 -9.7208e-19 3.94806e-18)
(-4.10534e-18 -4.60499e-35 3.33018e-34 2.99729e-19 -1.06801e-18 3.80561e-18)
(-4.01808e-18 3.46861e-35 4.87228e-35 3.75217e-19 -1.16913e-18 3.64287e-18)
(-3.92454e-18 6.42969e-35 -3.70523e-35 4.69196e-19 -1.27328e-18 3.45534e-18)
(-3.82082e-18 1.47638e-35 2.38686e-35 5.84955e-19 -1.3758e-18 3.23586e-18)
(-3.69907e-18 -2.75472e-36 3.8719e-35 7.24578e-19 -1.46808e-18 2.9745e-18)
(-3.5396e-18 3.61431e-35 1.06031e-35 8.85403e-19 -1.53298e-18 2.6542e-18)
(-3.30083e-18 5.81572e-35 -1.12741e-35 1.05019e-18 -1.5374e-18 2.25065e-18)
(-2.91115e-18 1.26596e-34 -8.29079e-35 1.16896e-18 -1.42708e-18 1.74219e-18)
(-2.29474e-18 -2.59949e-36 4.07446e-35 1.14737e-18 -1.14737e-18 1.14737e-18)
(-1.48055e-18 -1.30256e-34 1.21752e-34 9.02895e-19 -7.22192e-19 5.77654e-19)
(-7.08353e-19 -2.10462e-35 2.11024e-35 5.12067e-19 -3.17036e-19 1.96286e-19)
(-2.33578e-19 3.69893e-36 1.14059e-36 1.93343e-19 -8.81992e-20 4.02347e-20)
(-4.92826e-20 3.16755e-36 -7.00498e-37 4.49904e-20 -1.38964e-20 4.29226e-21)
(-5.33872e-21 1.67938e-37 1.03356e-38 5.179e-21 -9.09517e-22 1.59726e-22)
(-1.57168e-22 1.65487e-40 7.21791e-40 1.56682e-22 -8.72641e-24 4.86017e-25)
(-4.59429e-18 -3.45993e-33 -3.70288e-33 6.10745e-24 -5.29711e-21 4.59428e-18)
(-4.59449e-18 -2.49817e-33 1.26916e-33 5.41467e-23 -1.57726e-20 4.59444e-18)
(-4.59488e-18 6.22471e-34 8.34768e-34 1.48377e-22 -2.61104e-20 4.59474e-18)
(-4.59548e-18 5.56058e-35 1.44034e-33 2.89854e-22 -3.64957e-20 4.59519e-18)
(-4.59629e-18 5.49943e-34 7.22279e-35 4.82491e-22 -4.70897e-20 4.5958e-18)
(-4.59735e-18 5.46556e-34 2.9111e-34 7.32798e-22 -5.80378e-20 4.59661e-18)
(-4.59869e-18 4.79266e-34 5.57303e-34 1.04995e-21 -6.94789e-20 4.59764e-18)
(-4.60038e-18 2.79187e-34 1.42596e-33 1.44613e-21 -8.15514e-20 4.59893e-18)
(-4.60246e-18 3.84766e-34 -8.32677e-34 1.93674e-21 -9.43928e-20 4.60052e-18)
(-4.605e-18 1.93698e-34 1.00041e-33 2.54119e-21 -1.08147e-19 4.60246e-18)
(-4.60808e-18 3.59473e-34 2.44969e-34 3.28358e-21 -1.22964e-19 4.6048e-18)
(-4.61179e-18 4.22296e-34 4.76042e-34 4.19384e-21 -1.39009e-19 4.60759e-18)
(-4.61621e-18 3.38834e-34 6.79578e-34 5.30942e-21 -1.56465e-19 4.6109e-18)
(-4.62148e-18 2.98961e-34 5.94708e-34 6.67719e-21 -1.75539e-19 4.6148e-18)
(-4.6277e-18 7.43543e-35 5.16093e-34 8.35485e-21 -1.96453e-19 4.61934e-18)
(-4.63499e-18 7.63857e-35 1.19016e-34 1.04165e-20 -2.19481e-19 4.62457e-18)
(-4.64351e-18 3.09103e-34 -3.59413e-34 1.29567e-20 -2.44943e-19 4.63055e-18)
(-4.65336e-18 3.03055e-34 1.68868e-34 1.60938e-20 -2.73187e-19 4.63726e-18)
(-4.66463e-18 9.5089e-35 1.09827e-33 1.99837e-20 -3.0466e-19 4.64465e-18)
(-4.67749e-18 2.11354e-34 2.07582e-34 2.48155e-20 -3.39791e-19 4.65267e-18)
(-4.6919e-18 -1.09463e-34 2.46482e-33 3.07823e-20 -3.78788e-19 4.66112e-18)
(-4.70739e-18 -9.88047e-35 8.46396e-34 3.81853e-20 -4.2225e-19 4.66921e-18)
(-4.72391e-18 3.94465e-34 -1.35156e-33 4.75408e-20 -4.71507e-19 4.67637e-18)
(-4.7421e-18 1.58781e-34 -1.58758e-35 5.93927e-20 -5.27369e-19 4.6827e-18)
(-4.76156e-18 -1.37069e-34 1.05226e-33 7.43333e-20 -5.90268e-19 4.68722e-18)
(-4.78181e-18 2.67158e-35 1.53809e-34 9.32645e-20 -6.61268e-19 4.68855e-18)
(-4.77609e-18 2.59365e-36 3.13944e-34 1.16624e-19 -7.37159e-19 4.65947e-18)
(-4.73893e-18 1.26586e-34 2.14571e-34 1.44835e-19 -8.15712e-19 4.59409e-18)
(-4.70208e-18 9.10404e-35 6.57675e-34 1.79738e-19 -9.01574e-19 4.52234e-18)
(-4.66513e-18 -2.19685e-34 1.23861e-33 2.23059e-19 -9.95411e-19 4.44207e-18)
(-4.62856e-18 -7.97043e-35 6.13379e-34 2.76961e-19 -1.09783e-18 4.3516e-18)
(-4.59339e-18 1.14848e-34 3.06993e-35 3.44009e-19 -1.20906e-18 4.24938e-18)
(-4.55966e-18 -2.39173e-34 8.5579e-34 4.27059e-19 -1.32848e-18 4.1326e-18)
(-4.52887e-18 1.60024e-34 -4.51037e-34 5.29362e-19 -1.45506e-18 3.99951e-18)
(-4.50188e-18 -2.13688e-34 6.10018e-34 6.54936e-19 -1.5873e-18 3.84695e-18)
(-4.47788e-18 1.57477e-34 -2.96856e-34 8.08417e-19 -1.72234e-18 3.66946e-18)
(-4.45071e-18 -3.13552e-35 1.41376e-34 9.93405e-19 -1.85324e-18 3.45731e-18)
(-4.40625e-18 3.06846e-35 6.86782e-36 1.21113e-18 -1.96716e-18 3.19512e-18)
(-4.31477e-18 2.41961e-35 4.01986e-35 1.4551e-18 -2.03988e-18 2.85967e-18)
(-4.11047e-18 -8.31518e-35 1.43085e-34 1.69362e-18 -2.02317e-18 2.41685e-18)
(-3.67883e-18 7.35438e-35 -1.11365e-35 1.83942e-18 -1.83942e-18 1.83941e-18)
(-2.91115e-18 1.06518e-35 3.40201e-35 1.74219e-18 -1.42708e-18 1.16896e-18)
(-1.86813e-18 -1.04579e-34 8.80723e-35 1.30868e-18 -8.55657e-19 5.59459e-19)
(-8.91383e-19 -2.97709e-35 3.08823e-35 7.1007e-19 -3.5881e-19 1.81313e-19)
(-2.9714e-19 1.16553e-36 5.22093e-36 2.60927e-19 -9.72064e-20 3.62135e-20)
(-6.38377e-20 -1.61573e-37 7.26353e-37 6.00008e-20 -1.51729e-20 3.83688e-21)
(-6.99557e-21 4.46891e-39 7.70334e-38 6.85289e-21 -9.88808e-22 1.42676e-22)