/*--------------------------------*- C++ -*----------------------------------*\
| =========                 |                                                 |
| \\      /  F ield         | OpenFOAM: The Open Source CFD Toolbox           |
|  \\    /   O peration     | Version:  2112                                  |
|   \\  /    A nd           | Website:  www.openfoam.com                      |
|    \\/     M anipulation  |                                                 |
\*---------------------------------------------------------------------------*/
FoamFile
{
    version     2.0;
    format      ascii;
    arch        "LSB;label=32;scalar=64";
    class       volScalarField;
    location    "5000";
    object      k_HF;
}
// * * * * * * * * * * * * * * * * * * * * * * * * * * * * * * * * * * * * * //

dimensions      [0 2 -2 0 0 0 0];

internalField   nonuniform List<scalar> 
2304
(
0.000104192
0.000104087
0.000103861
0.000103595
0.000103278
0.000102798
0.000101823
0.000100459
9.91823e-05
9.80505e-05
9.68553e-05
9.53241e-05
9.33513e-05
9.10058e-05
8.84618e-05
8.57596e-05
8.2987e-05
8.0136e-05
7.72432e-05
7.43219e-05
7.13527e-05
6.83629e-05
6.53805e-05
6.24502e-05
5.95784e-05
5.67569e-05
5.39564e-05
5.11594e-05
4.83534e-05
4.55196e-05
4.26229e-05
3.96379e-05
3.65513e-05
3.33642e-05
3.00923e-05
2.67851e-05
2.34968e-05
2.03005e-05
1.72594e-05
1.44248e-05
1.18133e-05
9.42703e-06
7.25787e-06
5.30047e-06
3.56574e-06
2.08683e-06
9.20472e-07
1.8076e-07
0.000847377
0.000846599
0.000844884
0.000842856
0.000840451
0.000836837
0.000829561
0.000819404
0.000809895
0.000801438
0.000792509
0.00078106
0.000766296
0.000748687
0.000729534
0.000709116
0.000688105
0.000666409
0.000644289
0.000621864
0.000598935
0.000575728
0.000552446
0.000529442
0.000506748
0.000484318
0.000461913
0.000439394
0.000416655
0.000393524
0.000369738
0.000345056
0.000319345
0.000292624
0.000264984
0.00023682
0.000208616
0.000180989
0.000154491
0.000129615
0.000106525
8.52879e-05
6.5856e-05
4.81973e-05
3.24368e-05
1.88981e-05
8.08927e-06
9.20489e-07
0.00156478
0.00156339
0.00156042
0.00155687
0.00155267
0.00154654
0.0015343
0.00151725
0.00150134
0.00148729
0.00147249
0.0014535
0.0014289
0.00139948
0.00136746
0.00133328
0.00129801
0.00126153
0.00122424
0.00118631
0.00114738
0.00110773
0.00106781
0.00102808
0.000988671
0.000949476
0.000910039
0.000870093
0.000829436
0.000787753
0.000744536
0.000699312
0.000651775
0.000601896
0.000549775
0.00049605
0.000441459
0.000387341
0.000334589
0.000284157
0.000236501
0.000191821
0.00015006
0.000111199
7.56199e-05
4.43019e-05
1.88993e-05
2.08702e-06
0.00210956
0.00210766
0.00210375
0.00209925
0.00209381
0.00208619
0.00207064
0.002049
0.00202896
0.00201152
0.00199313
0.00196946
0.00193853
0.00190154
0.00186119
0.00181816
0.00177356
0.0017275
0.00168029
0.00163225
0.00158275
0.00153203
0.00148089
0.00142978
0.00137896
0.00132817
0.00127681
0.00122454
0.00117107
0.00111602
0.00105875
0.000998634
0.000935258
0.000868531
0.000798622
0.000726212
0.000652135
0.000578214
0.000505499
0.000434928
0.0003675
0.000303202
0.000241768
0.000182966
0.000127062
7.56316e-05
3.24447e-05
3.56672e-06
0.002535
0.00253267
0.00252813
0.00252331
0.00251733
0.00250916
0.00249152
0.00246682
0.00244431
0.00242501
0.0024047
0.00237814
0.00234318
0.00230119
0.00225534
0.00220636
0.00215523
0.00210225
0.00204792
0.00199234
0.00193492
0.00187587
0.00181591
0.00175575
0.00169585
0.00163578
0.00157487
0.0015127
0.001449
0.00138333
0.00131509
0.00124357
0.00116837
0.0010893
0.00100648
0.000920617
0.000832806
0.000744506
0.000657105
0.000571828
0.000489452
0.000409915
0.000332794
0.000257324
0.00018301
0.000111244
4.82214e-05
5.30332e-06
0.00286891
0.00286624
0.00286146
0.00285708
0.00285138
0.00284347
0.00282486
0.00279862
0.00277503
0.00275519
0.00273432
0.00270633
0.0026691
0.00262417
0.00257492
0.00252204
0.00246642
0.00240834
0.00234857
0.00228713
0.0022233
0.00215728
0.00208982
0.00202191
0.00195406
0.00188596
0.00181685
0.00174633
0.0016742
0.00160009
0.00152342
0.00144356
0.00136007
0.00127259
0.00118137
0.00108685
0.000990016
0.000892033
0.00079445
0.000698384
0.00060451
0.000512857
0.000422747
0.000332912
0.000241911
0.000150174
6.59132e-05
7.26451e-06
0.003123
0.0031201
0.00311551
0.00311224
0.0031076
0.00310059
0.00308195
0.00305543
0.00303188
0.00301247
0.00299194
0.0029636
0.00292542
0.00287906
0.00282793
0.0027726
0.0027138
0.00265191
0.00258782
0.00252146
0.00245206
0.00237989
0.00230574
0.00223088
0.00215592
0.00208068
0.00200457
0.00192726
0.00184856
0.00176829
0.00168602
0.00160108
0.00151311
0.00142162
0.00132659
0.00122833
0.00112742
0.00102458
0.000921226
0.000818068
0.000715815
0.000614389
0.000513088
0.000410254
0.000303516
0.000192055
8.54039e-05
9.44031e-06
0.00330656
0.00330354
0.00329958
0.00329788
0.00329484
0.00328905
0.00327101
0.00324517
0.00322238
0.00320391
0.00318409
0.00315587
0.0031175
0.00307063
0.00301843
0.0029614
0.00290017
0.00283516
0.0027673
0.00269646
0.00262193
0.00254409
0.00246391
0.00238272
0.00230148
0.00222012
0.00213831
0.00205588
0.00197279
0.00188895
0.00180405
0.00171758
0.00162902
0.00153791
0.00144395
0.00134686
0.00124677
0.00114402
0.00103922
0.000932758
0.000825157
0.000716198
0.000605102
0.0004901
0.000368074
0.000236918
0.000106725
1.18362e-05
0.00342894
0.00342595
0.00342302
0.00342307
0.0034219
0.0034174
0.00340029
0.00337567
0.00335396
0.00333646
0.0033172
0.00328915
0.00325075
0.00320372
0.00315072
0.00309217
0.00302872
0.00296083
0.00288943
0.0028142
0.00273486
0.00265167
0.00256614
0.00247941
0.00239279
0.00230654
0.00222057
0.0021349
0.00204968
0.00196491
0.0018804
0.00179577
0.00171048
0.00162389
0.00153531
0.00144403
0.00134947
0.00125132
0.00114926
0.00104323
0.000933264
0.000818913
0.000699419
0.000572884
0.000435837
0.000284805
0.000129929
1.4461e-05
0.00350028
0.0034975
0.0034959
0.00349766
0.00349828
0.00349494
0.00347887
0.00345558
0.00343494
0.00341808
0.00339887
0.00337066
0.00333206
0.00328465
0.00323068
0.00317048
0.00310471
0.00303394
0.00295889
0.00287949
0.00279547
0.00270758
0.00261739
0.00252624
0.00243546
0.0023457
0.00225723
0.0021703
0.00208516
0.00200198
0.00192068
0.00184091
0.00176213
0.00168347
0.00160399
0.00152235
0.00143728
0.00134754
0.00125202
0.0011498
0.00104024
0.000922628
0.000796017
0.000658604
0.000506767
0.000335498
0.000154948
1.73119e-05
0.00353048
0.00352811
0.00352795
0.00353122
0.00353334
0.00353081
0.00351572
0.00349367
0.00347377
0.00345691
0.00343713
0.00340821
0.00336888
0.00332064
0.0032653
0.0032032
0.00313494
0.00306115
0.00298249
0.00289906
0.00281098
0.00271908
0.00262518
0.00253088
0.00243745
0.00234582
0.00225662
0.00217032
0.00208737
0.00200802
0.00193228
0.00185985
0.00179006
0.00172204
0.0016543
0.00158516
0.00151251
0.00143419
0.00134812
0.00125247
0.00114567
0.00102656
0.000894141
0.000746528
0.000579852
0.000388551
0.000181586
2.03697e-05
0.00352853
0.00352675
0.00352798
0.00353245
0.00353559
0.00353351
0.00351917
0.00349809
0.00347844
0.00346087
0.00343977
0.0034094
0.00336875
0.00331921
0.00326213
0.00319784
0.00312697
0.00305013
0.00296811
0.00288106
0.00278959
0.0026948
0.00259841
0.00250232
0.00240784
0.00231609
0.00222797
0.00214417
0.00206527
0.00199165
0.00192336
0.00186011
0.00180115
0.00174548
0.0016913
0.00163643
0.00157798
0.00151305
0.0014384
0.00135118
0.00124896
0.00112992
0.000992612
0.000835289
0.000654206
0.000442949
0.00020935
2.35827e-05
0.0035022
0.00350113
0.0035036
0.00350884
0.00351252
0.00351046
0.00349657
0.00347609
0.00345616
0.0034372
0.00341396
0.00338149
0.003339
0.00328766
0.00322855
0.00316198
0.00308849
0.00300884
0.00292377
0.00283395
0.00274001
0.00264343
0.00254605
0.00244966
0.00235578
0.00226566
0.00218036
0.00210077
0.00202758
0.00196125
0.00190185
0.00184904
0.00180208
0.00175967
0.00171993
0.00168016
0.00163688
0.00158615
0.00152393
0.00144616
0.00134945
0.00123125
0.00108985
0.000923477
0.000728578
0.000497758
0.000237688
2.68856e-05
0.00345793
0.00345761
0.00346104
0.00346666
0.00347032
0.00346788
0.00345417
0.00343391
0.00341314
0.00339207
0.00336612
0.00333106
0.00328626
0.00323279
0.00317149
0.00310267
0.00302686
0.0029448
0.00285738
0.00276558
0.0026704
0.00257333
0.00247628
0.00238118
0.00228954
0.00220272
0.00212191
0.00204808
0.001982
0.00192416
0.00187465
0.00183311
0.00179873
0.00177002
0.00174483
0.00172016
0.00169201
0.00165557
0.0016058
0.00153767
0.00144675
0.0013297
0.00118455
0.00100945
0.00080117
0.000551628
0.000265929
3.02049e-05
0.00340097
0.00340134
0.0034054
0.00341103
0.00341421
0.00341099
0.0033972
0.00337675
0.00335464
0.00333094
0.00330183
0.00326381
0.00321639
0.00316067
0.00309723
0.00302635
0.0029486
0.00286476
0.00277591
0.00268317
0.00258786
0.00249165
0.00239645
0.00230409
0.00221621
0.00213424
0.00205937
0.00199263
0.0019348
0.00188637
0.00184741
0.00181751
0.00179582
0.00178077
0.00176985
0.00175978
0.00174604
0.00172319
0.0016852
0.00162612
0.00154057
0.00142457
0.00127566
0.00109218
0.000870998
0.000603678
0.000293541
3.34729e-05
0.00333547
0.00333641
0.00334076
0.00334606
0.00334838
0.00334407
0.0033299
0.00330891
0.00328506
0.00325837
0.00322582
0.00318463
0.00313453
0.00307655
0.00301117
0.0029386
0.00285944
0.00277457
0.00268522
0.00259267
0.00249852
0.00240445
0.00231241
0.00222423
0.00214153
0.00206574
0.00199806
0.0019395
0.00189081
0.00185241
0.00182433
0.00180618
0.00179698
0.00179505
0.00179778
0.00180139
0.00180097
0.00179049
0.00176317
0.00171206
0.00163104
0.00151549
0.00136259
0.00117081
0.000937346
0.000653283
0.000320117
3.66428e-05
0.00326469
0.00326603
0.00327034
0.00327499
0.0032762
0.00327057
0.00325572
0.00323382
0.00320795
0.00317808
0.00314199
0.00309764
0.00304494
0.00298489
0.00291787
0.00284408
0.00276417
0.00267909
0.00259021
0.00249903
0.00240717
0.00231652
0.00222895
0.00214619
0.00206989
0.00200143
0.00194195
0.0018924
0.00185344
0.00182545
0.0018084
0.00180182
0.00180473
0.00181528
0.00183064
0.00184679
0.00185837
0.00185876
0.00184052
0.00179603
0.00171841
0.00160235
0.0014451
0.00124516
0.000999994
0.000700264
0.000345522
3.96928e-05
0.0031911
0.00319263
0.00319658
0.00320035
0.00320025
0.00319318
0.00317735
0.00315423
0.00312614
0.00309307
0.00305356
0.0030062
0.00295113
0.00288928
0.00282102
0.00274658
0.00266664
0.00258224
0.0024948
0.00240603
0.00231766
0.0022316
0.0021496
0.00207341
0.00200455
0.00194432
0.0018938
0.00185382
0.00182498
0.00180755
0.00180147
0.00180622
0.00182067
0.00184291
0.00186987
0.00189722
0.00191922
0.00192883
0.00191804
0.00187858
0.00180298
0.00168564
0.00152355
0.00131548
0.00105913
0.000744741
0.000369786
4.26267e-05
0.0031165
0.00311803
0.00312135
0.00312405
0.00312252
0.00311392
0.00309686
0.00307225
0.00304186
0.00300575
0.00296306
0.002913
0.00285587
0.0027926
0.00272358
0.00264911
0.00256989
0.002487
0.002402
0.00231666
0.00223287
0.00215242
0.00207704
0.00200834
0.00194773
0.00189643
0.00185539
0.00182534
0.0018068
0.00179995
0.00180467
0.00182036
0.0018458
0.00187885
0.00191628
0.00195345
0.0019843
0.0020014
0.00199629
0.00196028
0.00188542
0.00176581
0.00159846
0.00138229
0.00111524
0.000787069
0.00039307
4.54614e-05
0.00304216
0.0030435
0.003046
0.00304747
0.00304442
0.00303424
0.00301574
0.00298945
0.00295679
0.00291794
0.00287245
0.00282006
0.00276131
0.00269707
0.00262783
0.00255396
0.0024762
0.0023957
0.00231407
0.00223318
0.0021549
0.00208099
0.00201307
0.0019526
0.00190088
0.00185897
0.00182775
0.00180783
0.00179964
0.00180328
0.00181857
0.00184479
0.00188057
0.0019236
0.00197036
0.00201599
0.00205413
0.00207704
0.00207596
0.00204185
0.00196648
0.00184378
0.00167072
0.00144646
0.0011691
0.000827841
0.000415674
4.82311e-05
0.00296886
0.00296987
0.00297145
0.00297155
0.0029669
0.00295512
0.00293504
0.00290698
0.00287219
0.00283094
0.00278312
0.00272886
0.00266896
0.0026043
0.00253543
0.00246283
0.00238728
0.00231001
0.00223267
0.00215716
0.00208526
0.00201868
0.00195889
0.00190721
0.00186481
0.00183261
0.00181138
0.00180166
0.00180377
0.00181776
0.00184332
0.00187964
0.00192513
0.00197727
0.00203232
0.00208513
0.0021291
0.00215629
0.0021577
0.00212409
0.00204707
0.00192044
0.00174128
0.00150893
0.00122155
0.000867695
0.000437936
5.09744e-05
0.00289708
0.00289766
0.00289822
0.00289684
0.00289054
0.00287713
0.00285543
0.00282564
0.00278893
0.00274565
0.002696
0.00264041
0.00257992
0.00251542
0.00244756
0.00237692
0.00230436
0.00223115
0.00215899
0.00208969
0.00202495
0.00196634
0.0019152
0.00187272
0.00183991
0.0018176
0.00180644
0.00180689
0.00181919
0.0018433
0.00187881
0.00192472
0.00197927
0.00203969
0.00210198
0.00216078
0.00220929
0.00223936
0.00224188
0.00220749
0.00212774
0.00199646
0.00181082
0.00157034
0.0012732
0.00090711
0.000460117
5.37267e-05
0.00282699
0.00282708
0.00282656
0.00282363
0.00281562
0.00280058
0.00277729
0.00274592
0.00270754
0.00266263
0.00261167
0.00255536
0.00249488
0.0024312
0.00236504
0.00229711
0.00222833
0.00216
0.00209381
0.00203147
0.00197454
0.00192443
0.00188233
0.00184932
0.00182627
0.00181391
0.0018128
0.00182331
0.00184562
0.00187958
0.00192462
0.00197957
0.00204245
0.00211026
0.00217878
0.00224243
0.00229423
0.00232592
0.00232827
0.00229193
0.0022085
0.00207191
0.00187954
0.00163096
0.00132429
0.000946281
0.000482326
5.64996e-05
0.0027586
0.00275815
0.0027565
0.00275197
0.00274226
0.00272559
0.0027008
0.00266804
0.00262831
0.00258223
0.00253052
0.00247414
0.00241433
0.00235216
0.00228844
0.00222399
0.00215977
0.00209712
0.00203763
0.00198288
0.00193428
0.00189308
0.00186033
0.00183695
0.00182373
0.0018213
0.00183014
0.00185054
0.00188259
0.00192601
0.00198007
0.00204339
0.00211379
0.00218803
0.00226169
0.00232905
0.00238295
0.00241507
0.00241615
0.00237685
0.00228899
0.00214661
0.00194728
0.00169071
0.00137474
0.000985138
0.000504515
5.92897e-05
0.00269174
0.00269071
0.00268789
0.00268179
0.00267039
0.00265215
0.002626
0.0025921
0.00255138
0.00250463
0.00245279
0.00239701
0.00233859
0.00227867
0.00221815
0.00215797
0.00209911
0.00204287
0.00199073
0.00194409
0.00190426
0.00187225
0.00184902
0.00183535
0.00183195
0.00183935
0.00185796
0.00188799
0.00192939
0.00198176
0.00204419
0.00211512
0.00219212
0.00227177
0.00234948
0.00241935
0.0024742
0.00250567
0.00250455
0.00246159
0.00236869
0.00222022
0.00201391
0.0017495
0.00142455
0.00102371
0.0005267
6.20944e-05
0.0026261
0.00262447
0.00262048
0.00261284
0.00259986
0.00258015
0.00255283
0.00251806
0.00247678
0.00242991
0.0023786
0.00232414
0.00226786
0.00221099
0.00215448
0.00209932
0.00204656
0.00199742
0.00195316
0.00191511
0.00188432
0.0018617
0.00184809
0.00184415
0.00185046
0.00186753
0.00189565
0.00193492
0.00198518
0.00204585
0.00211587
0.00219349
0.0022761
0.0023601
0.00244073
0.00251206
0.00256681
0.00259666
0.00259255
0.00254533
0.00244711
0.00229251
0.0020794
0.00180746
0.00147377
0.00106195
0.000548847
6.49111e-05
0.00256134
0.00255908
0.00255393
0.00254484
0.0025304
0.0025094
0.00248115
0.00244586
0.00240452
0.00235816
0.00230806
0.00225565
0.00220232
0.00214928
0.00209758
0.00204822
0.00200223
0.00196077
0.00192492
0.00189575
0.00187423
0.00186112
0.00185711
0.00186282
0.00187871
0.00190519
0.00194246
0.0019905
0.00204899
0.00211721
0.00219394
0.00227724
0.00236441
0.00245169
0.0025342
0.00260591
0.00265966
0.0026871
0.00267928
0.00262729
0.00252366
0.0023631
0.0021435
0.00186441
0.00152241
0.00109993
0.000570964
6.77421e-05
0.00249707
0.00249415
0.00248788
0.00247746
0.00246173
0.00243969
0.00241082
0.00237544
0.00233457
0.00228936
0.00224124
0.0021917
0.00214209
0.00209369
0.00204759
0.00200472
0.00196615
0.00193286
0.0019058
0.00188575
0.00187362
0.00187008
0.00187563
0.00189079
0.001916
0.00195154
0.0019975
0.00205372
0.00211974
0.0021947
0.0022772
0.00236524
0.00245593
0.00254542
0.00262882
0.00270005
0.00275189
0.00277612
0.00276409
0.00270723
0.00259808
0.00243175
0.00220606
0.00192025
0.00157032
0.00113747
0.000592985
7.05763e-05
0.00243283
0.00242928
0.002422
0.00241039
0.00239359
0.00237081
0.00234171
0.00230674
0.00226695
0.00222361
0.00217826
0.00213239
0.00208727
0.00204433
0.00200456
0.00196888
0.00193825
0.00191353
0.00189548
0.00188478
0.00188207
0.00188798
0.00190294
0.0019273
0.00196145
0.00200557
0.00205962
0.00212333
0.0021961
0.00227693
0.00236433
0.00245612
0.00254935
0.00264017
0.00272363
0.0027936
0.00284291
0.00286361
0.00284711
0.00278518
0.00267077
0.00249899
0.00226757
0.00197537
0.00161781
0.00117483
0.00061498
7.34228e-05
0.00236817
0.00236409
0.00235594
0.00234337
0.00232577
0.00230262
0.00227376
0.00223974
0.00220175
0.00216107
0.00211926
0.00207781
0.00203809
0.00200133
0.00196854
0.00194062
0.00191838
0.00190253
0.00189367
0.00189234
0.00189902
0.0019142
0.00193823
0.00197142
0.002014
0.00206604
0.00212743
0.00219778
0.0022764
0.0023622
0.00245355
0.00254819
0.00264311
0.00273443
0.00281718
0.00288532
0.00293179
0.00294871
0.00292792
0.00286136
0.0027421
0.0025653
0.00232856
0.00203027
0.00166514
0.00121215
0.000637031
7.62905e-05
0.00230273
0.00229824
0.00228944
0.00227619
0.00225816
0.00223505
0.00220697
0.00217457
0.00213909
0.00210187
0.00206445
0.00202826
0.00199469
0.00196481
0.00193962
0.00191989
0.00190636
0.00189956
0.00189994
0.00190788
0.00192376
0.00194791
0.0019806
0.00202204
0.00207236
0.00213152
0.00219934
0.00227537
0.00235885
0.0024486
0.00254293
0.00263951
0.00273527
0.0028263
0.00290772
0.00297359
0.00301705
0.0030304
0.00300553
0.00293472
0.00281118
0.00262993
0.0023883
0.00208426
0.00171193
0.00124913
0.000658988
7.91612e-05
0.00223632
0.00223157
0.00222238
0.0022088
0.00219075
0.00216822
0.00214151
0.00211145
0.00207926
0.0020463
0.0020141
0.00198398
0.00195725
0.00193491
0.00191782
0.00190665
0.001902
0.00190429
0.00191381
0.00193079
0.00195551
0.00198818
0.00202896
0.00207793
0.00213513
0.00220049
0.00227374
0.00235441
0.00244167
0.0025343
0.00263058
0.00272815
0.00282394
0.00291406
0.00299366
0.00305694
0.00309717
0.00310694
0.00307841
0.0030039
0.00287671
0.0026917
0.00244582
0.00213653
0.00175735
0.00128514
0.000680447
8.19769e-05
0.00216894
0.0021641
0.0021548
0.00214129
0.00212374
0.00210237
0.00207772
0.00205073
0.00202265
0.00199479
0.00196858
0.0019453
0.00192601
0.00191174
0.00190314
0.00190073
0.00190501
0.00191629
0.00193472
0.00196035
0.00199338
0.002034
0.0020821
0.00213772
0.00220089
0.00227144
0.00234912
0.00243337
0.00252333
0.00261782
0.00271507
0.00281274
0.00290775
0.00299622
0.00307346
0.00313378
0.00317068
0.00317694
0.00314496
0.00306724
0.00293701
0.00274885
0.00249931
0.00218537
0.00179991
0.00131889
0.000700599
8.46359e-05
0.00210061
0.00209585
0.00208679
0.00207382
0.00205735
0.00203783
0.00201598
0.00199282
0.00196964
0.00194767
0.00192817
0.00191235
0.00190111
0.00189526
0.00189538
0.00190184
0.00191494
0.00193493
0.00196183
0.00199565
0.00203638
0.00208406
0.00213864
0.00220002
0.00226818
0.00234297
0.00242404
0.00251085
0.00260255
0.00269792
0.00279522
0.00289215
0.00298567
0.00307198
0.00314645
0.00320359
0.00323717
0.00324019
0.00320522
0.00312487
0.0029922
0.0028016
0.0025492
0.00223126
0.00184007
0.00135086
0.000719778
8.71727e-05
0.00203141
0.00202692
0.00201846
0.00200658
0.00199184
0.00197493
0.00195668
0.00193815
0.00192061
0.00190522
0.0018931
0.00188525
0.00188247
0.00188532
0.00189423
0.00190947
0.00193117
0.00195946
0.00199427
0.00203551
0.00208313
0.00213706
0.00219718
0.00226339
0.00233557
0.00241357
0.00249704
0.00258547
0.00267801
0.00277341
0.00286999
0.00296549
0.00305699
0.00314077
0.00321236
0.00326649
0.00329707
0.00329734
0.00326003
0.00317775
0.00304353
0.00285139
0.00259685
0.00227554
0.00187909
0.00138194
0.000738394
8.96438e-05
0.00196163
0.00195761
0.00195016
0.00193994
0.00192766
0.00191414
0.00190031
0.00188723
0.00187607
0.00186791
0.0018637
0.00186424
0.00187008
0.00188171
0.00189934
0.00192307
0.00195296
0.00198895
0.00203093
0.00207876
0.00213232
0.0021915
0.00225615
0.00232615
0.00240138
0.00248162
0.00256658
0.00265574
0.00274826
0.00284295
0.00293819
0.00303179
0.00312091
0.00320204
0.00327083
0.00332219
0.00335025
0.00334838
0.0033095
0.00322616
0.0030911
0.00289799
0.0026418
0.00231746
0.00191612
0.00141147
0.000756078
9.19974e-05
0.0018917
0.00188839
0.00188241
0.0018745
0.00186543
0.00185611
0.00184749
0.00184061
0.0018365
0.0018361
0.00184018
0.00184932
0.00186387
0.00188413
0.00191019
0.00194196
0.00197938
0.00202234
0.00207063
0.00212407
0.00218255
0.00224594
0.00231406
0.00238676
0.00246399
0.00254557
0.00263117
0.00272026
0.00281206
0.00290544
0.00299883
0.00309016
0.00317675
0.00325518
0.0033213
0.00337017
0.00339611
0.00339269
0.0033528
0.00326888
0.00313354
0.00293999
0.00268258
0.00235566
0.00194982
0.0014383
0.0007722
9.41488e-05
0.00182208
0.00181977
0.00181576
0.00181081
0.00180572
0.00180136
0.0017987
0.00179868
0.00180218
0.00180992
0.00182251
0.00184028
0.00186343
0.00189204
0.00192602
0.00196518
0.00200939
0.00205843
0.00211204
0.00217006
0.00223235
0.00229878
0.00236925
0.00244365
0.00252192
0.00260391
0.0026893
0.0027776
0.00286806
0.00295962
0.00305079
0.00313959
0.00322347
0.00329919
0.00336279
0.00340949
0.00343376
0.00342927
0.00338891
0.0033051
0.00317009
0.00297659
0.00271844
0.00238941
0.00197966
0.00146206
0.00078645
9.60546e-05
0.00175359
0.00175255
0.00175098
0.00174962
0.00174918
0.00175051
0.00175445
0.00176183
0.00177334
0.00178945
0.00181057
0.00183683
0.00186822
0.00190467
0.00194595
0.00199171
0.00204175
0.00209587
0.00215379
0.00221528
0.00228027
0.00234865
0.0024204
0.00249548
0.00257383
0.00265532
0.00273968
0.00282647
0.00291499
0.00300426
0.00309288
0.00317898
0.00326012
0.0033332
0.00339443
0.00343926
0.00346229
0.00345723
0.00341701
0.00333392
0.00319981
0.00300698
0.00274874
0.00241829
0.00200538
0.00148254
0.000798712
9.76958e-05
0.00168713
0.00168761
0.00168893
0.00169169
0.00169651
0.0017041
0.00171516
0.0017303
0.00175
0.00177454
0.00180403
0.00183844
0.00187757
0.00192118
0.00196891
0.00202038
0.00207533
0.0021335
0.00219463
0.00225854
0.00232518
0.00239453
0.00246663
0.0025415
0.00261909
0.0026993
0.00278189
0.00286651
0.00295257
0.00303915
0.00312496
0.00320822
0.00328663
0.00335726
0.00341643
0.0034597
0.00348176
0.0034764
0.00343654
0.00335432
0.00322148
0.00302987
0.00277225
0.00244123
0.00202609
0.00149913
0.000808658
9.90249e-05
0.00162376
0.00162596
0.00163051
0.00163783
0.00164836
0.00166263
0.00168112
0.00170419
0.00173209
0.00176485
0.00180235
0.00184438
0.00189056
0.00194054
0.00199385
0.00205007
0.00210891
0.00217011
0.00223346
0.00229887
0.00236631
0.00243581
0.00250748
0.00258142
0.00265762
0.00273603
0.00281646
0.0028986
0.00298193
0.00306563
0.00314853
0.00322897
0.00330477
0.00337313
0.00343053
0.0034726
0.00349415
0.00348903
0.00345006
0.00336921
0.00323798
0.00304787
0.00279113
0.00245988
0.00204305
0.0015127
0.000816759
0.000100105
0.00156458
0.00156864
0.00157668
0.00158884
0.00160536
0.0016265
0.0016525
0.00168344
0.00171931
0.00175989
0.00180484
0.00185378
0.00190619
0.00196166
0.00201963
0.00207965
0.00214146
0.00220481
0.00226953
0.00233559
0.00240309
0.00247214
0.00254288
0.00261544
0.00268989
0.00276625
0.00284439
0.00292406
0.00300479
0.00308582
0.00316605
0.00324395
0.00331744
0.00338385
0.00343979
0.00348107
0.00350253
0.00349805
0.00346039
0.00338136
0.00325213
0.0030637
0.00280788
0.00247638
0.00205791
0.0015245
0.000823749
0.000101037
0.00151065
0.00151667
0.00152831
0.00154543
0.00156797
0.00159593
0.00162925
0.00166772
0.00171108
0.00175888
0.00181055
0.00186554
0.00192328
0.0019833
0.00204502
0.00210796
0.00217187
0.00223661
0.00230206
0.00236822
0.00243527
0.00250341
0.00257284
0.00264372
0.00271621
0.00279038
0.0028662
0.00294345
0.00302172
0.00310028
0.00317811
0.00325372
0.00332517
0.00338992
0.00344471
0.00348543
0.00350704
0.00350335
0.00346712
0.00338997
0.00326275
0.00307617
0.00282155
0.00249021
0.00207056
0.00153459
0.000829714
0.000101834
0.00146313
0.00147108
0.00148625
0.00150819
0.00153653
0.00157097
0.00161115
0.00165656
0.0017067
0.00176088
0.00181837
0.00187851
0.00194063
0.00200425
0.00206882
0.00213388
0.00219926
0.00226484
0.00233055
0.00239648
0.00246287
0.00252994
0.00259797
0.0026672
0.00273785
0.00281003
0.00288376
0.00295888
0.00303501
0.00311151
0.00318739
0.00326129
0.00333131
0.00339495
0.00344901
0.00348939
0.00351107
0.00350793
0.00347259
0.00339659
0.00327057
0.00308495
0.00283086
0.00249937
0.00207877
0.0015411
0.000833585
0.000102353
0.00142303
0.00143277
0.0014512
0.00147756
0.00151118
0.00155146
0.00159773
0.00164925
0.00170523
0.0017648
0.00182711
0.00189138
0.00195696
0.00202332
0.00208998
0.00215656
0.0022229
0.00228894
0.00235468
0.00242026
0.00248597
0.00255208
0.0026189
0.00268677
0.00275594
0.0028266
0.00289876
0.00297231
0.00304696
0.00312212
0.00319685
0.0032698
0.00333907
0.0034022
0.00345595
0.00349622
0.00351793
0.00351491
0.00347976
0.0034039
0.00327801
0.00309239
0.00283812
0.00250616
0.00208476
0.00154585
0.000836455
0.000102738
0.00139134
0.00140258
0.00142378
0.00145389
0.00149196
0.00153711
0.00158841
0.0016449
0.00170559
0.00176944
0.00183547
0.00190287
0.00197097
0.0020393
0.0021074
0.00217498
0.00224194
0.00230823
0.0023739
0.00243913
0.00250423
0.00256956
0.00263544
0.00270227
0.00277036
0.00283995
0.00291111
0.00298372
0.00305749
0.00313185
0.00320592
0.00327834
0.00334727
0.00341022
0.00346396
0.00350441
0.00352644
0.00352381
0.00348904
0.00341351
0.00328774
0.003102
0.00284729
0.00251457
0.00209204
0.00155162
0.000839918
0.000103207
0.00136904
0.0013814
0.00140466
0.00143754
0.00147889
0.00152761
0.00158257
0.00164263
0.00170666
0.00177351
0.00184212
0.00191166
0.00198144
0.00205102
0.00212
0.00218816
0.00225544
0.00232185
0.00238745
0.00245241
0.00251708
0.00258181
0.00264697
0.00271297
0.00278021
0.00284896
0.00291934
0.00299127
0.00306442
0.00313824
0.00321179
0.00328377
0.00335232
0.003415
0.00346862
0.00350911
0.00353135
0.00352906
0.00349468
0.0034195
0.00329395
0.00310827
0.00285341
0.00252027
0.00209705
0.00155556
0.000842271
0.000103525
0.00135723
0.00137021
0.00139459
0.001429
0.00147214
0.00152279
0.00157973
0.00164168
0.00170747
0.00177589
0.00184586
0.00191652
0.00198716
0.00205736
0.00212676
0.00219518
0.00226259
0.00232904
0.00239459
0.00245944
0.0025239
0.00258832
0.00265311
0.00271867
0.0027854
0.00285356
0.00292325
0.0029944
0.00306673
0.0031397
0.00321243
0.0032836
0.00335141
0.0034134
0.00346634
0.00350613
0.00352766
0.00352465
0.0034896
0.00341388
0.00328801
0.00310227
0.00284765
0.00251507
0.00209268
0.00155225
0.000840349
0.000103268
)
;

boundaryField
{
    inlet
    {
        type            cyclic;
    }
    outlet
    {
        type            cyclic;
    }
    walls
    {
        type            zeroGradient;
    }
    symPlanes
    {
        type            symmetry;
    }
}


// ************************************************************************* //
