/*--------------------------------*- C++ -*----------------------------------*\
| =========                 |                                                 |
| \      /  F ield         | OpenFOAM: The Open Source CFD Toolbox           |
|  \    /   O peration     | Version:  2112                                  |
|   \  /    A nd           | Website:  www.openfoam.com                      |
|    \/     M anipulation  |                                                 |
\*---------------------------------------------------------------------------*/
FoamFile
{
    version     2.0;
    format      ascii;
    arch        "LSB;label=32;scalar=64";
    class       volSymmTensorField;
    location    "5000";
    object      Rij_HF;
}
// * * * * * * * * * * * * * * * * * * * * * * * * * * * * * * * * * * * * * //

dimensions      [0 2 -2 0 0 0 0];

internalField   nonuniform List<symmTensor> 
2304
(
(0.000117431 -2e-08 -4.8e-07 5.77113e-05 0 3.32413e-05)
(0.000117651 -1.3e-07 -4.8e-07 5.74613e-05 0 3.30613e-05)
(0.000117551 -1.2e-07 -4.8e-07 5.72107e-05 0 3.29607e-05)
(0.000117253 -6e-08 -4.7e-07 5.69633e-05 1e-08 3.29833e-05)
(0.000116842 9e-08 -4.6e-07 5.6662e-05 1e-08 3.3052e-05)
(0.000116152 2.9e-07 -4.5e-07 5.6392e-05 1e-08 3.3062e-05)
(0.000114582 4.4e-07 -4.4e-07 5.6052e-05 1e-08 3.3012e-05)
(0.000112603 4.8e-07 -4.2e-07 5.54927e-05 1e-08 3.28227e-05)
(0.000110752 3.7e-07 -4e-07 5.48915e-05 1e-08 3.27215e-05)
(0.000109007 2.2e-07 -3.9e-07 5.4327e-05 1e-08 3.2767e-05)
(0.00010742 1.6e-07 -3.8e-07 5.36502e-05 1e-08 3.26402e-05)
(0.000105279 2e-07 -3.7e-07 5.28694e-05 1e-08 3.24994e-05)
(0.000102474 2.9e-07 -3.5e-07 5.19342e-05 2e-08 3.22942e-05)
(9.93405e-05 2.8e-07 -3.3e-07 5.08305e-05 2e-08 3.18405e-05)
(9.57845e-05 1.2e-07 -3.1e-07 4.97045e-05 2e-08 3.14445e-05)
(9.25431e-05 -1.1e-07 -2.9e-07 4.83131e-05 2e-08 3.06631e-05)
(8.89847e-05 -4.8e-07 -2.7e-07 4.69347e-05 2e-08 3.00547e-05)
(8.5694e-05 -8.2e-07 -2.5e-07 4.5374e-05 2e-08 2.9204e-05)
(8.25355e-05 -1.19e-06 -2.4e-07 4.37455e-05 1e-08 2.82155e-05)
(7.96379e-05 -1.49e-06 -2.2e-07 4.20079e-05 1e-08 2.69979e-05)
(7.64685e-05 -1.91e-06 -2.1e-07 4.03285e-05 1e-08 2.59085e-05)
(7.36653e-05 -2.23e-06 -2e-07 3.85253e-05 1e-08 2.45353e-05)
(7.0917e-05 -2.54e-06 -1.9e-07 3.6697e-05 1e-08 2.3147e-05)
(6.80735e-05 -2.89e-06 -1.8e-07 3.49135e-05 2e-08 2.19235e-05)
(6.55589e-05 -3.12e-06 -1.8e-07 3.30889e-05 2e-08 2.05089e-05)
(6.30179e-05 -3.3e-06 -1.8e-07 3.13079e-05 2e-08 1.91879e-05)
(6.04709e-05 -3.42e-06 -1.8e-07 2.95409e-05 3e-08 1.78909e-05)
(5.78763e-05 -3.46e-06 -1.8e-07 2.77863e-05 3e-08 1.66563e-05)
(5.51656e-05 -3.38e-06 -1.8e-07 2.60256e-05 4e-08 1.55056e-05)
(5.22864e-05 -3.19e-06 -1.9e-07 2.42764e-05 6e-08 1.44764e-05)
(4.93053e-05 -2.89e-06 -1.9e-07 2.24953e-05 6e-08 1.34353e-05)
(4.60253e-05 -2.49e-06 -1.9e-07 2.07353e-05 7e-08 1.25153e-05)
(4.21975e-05 -1.94e-06 -1.9e-07 1.90475e-05 8e-08 1.18675e-05)
(3.84828e-05 -1.48e-06 -1.8e-07 1.72828e-05 8e-08 1.09628e-05)
(3.43715e-05 -9.8e-07 -1.6e-07 1.55915e-05 9e-08 1.02215e-05)
(3.03767e-05 -5.9e-07 -1.5e-07 1.38667e-05 8e-08 9.32673e-06)
(2.61545e-05 -2.5e-07 -1.2e-07 1.22645e-05 8e-08 8.57453e-06)
(2.18737e-05 -1e-08 -8e-08 1.07737e-05 7e-08 7.95367e-06)
(1.79463e-05 1e-07 -5e-08 9.31627e-06 6e-08 7.25627e-06)
(1.47965e-05 1.2e-07 -3e-08 7.78653e-06 6e-08 6.26653e-06)
(1.19155e-05 1e-07 -2e-08 6.37553e-06 5e-08 5.34553e-06)
(9.52469e-06 7e-08 -1e-08 5.00469e-06 4e-08 4.32469e-06)
(7.30858e-06 4e-08 0 3.77858e-06 2e-08 3.42858e-06)
(5.50365e-06 2e-08 0 2.62365e-06 1e-08 2.46365e-06)
(4.01716e-06 2e-08 0 1.58716e-06 1e-08 1.52716e-06)
(2.69122e-06 1e-08 0 7.5122e-07 0 7.3122e-07)
(1.45365e-06 0 0 1.93648e-07 0 1.93648e-07)
(3.80507e-07 0 0 -9.49333e-09 0 -9.49333e-09)
(0.00100417 -3.5e-07 -1.23e-05 0.000423688 -2e-08 0.000266898)
(0.00100579 -1.3e-06 -1.235e-05 0.000421909 5e-08 0.000265499)
(0.00100557 -1.4e-06 -1.224e-05 0.000419756 1e-07 0.000264446)
(0.00100278 -1.11e-06 -1.202e-05 0.000418284 1.2e-07 0.000264644)
(0.000999691 -3e-08 -1.19e-05 0.000416301 1.3e-07 0.000264921)
(0.000994131 1.45e-06 -1.17e-05 0.000414641 1.2e-07 0.000264901)
(0.000981581 2.66e-06 -1.142e-05 0.000412761 1.4e-07 0.000264771)
(0.000964509 2.88e-06 -1.098e-05 0.000410029 1.9e-07 0.000264269)
(0.00094966 2.01e-06 -1.061e-05 0.00040641 2.2e-07 0.00026372)
(0.000935492 1.12e-06 -1.029e-05 0.000403232 2.4e-07 0.000264152)
(0.000921759 7.4e-07 -1.005e-05 0.000399439 2.7e-07 0.000263819)
(0.000903577 1.14e-06 -9.74e-06 0.000395047 2.9e-07 0.000263497)
(0.000881404 1.84e-06 -9.33e-06 0.000389364 2.8e-07 0.000261824)
(0.000854915 1.74e-06 -8.82e-06 0.000382995 2.8e-07 0.000259475)
(0.000826416 5.2e-07 -8.28e-06 0.000376036 2.7e-07 0.000256616)
(0.000796904 -1.64e-06 -7.7e-06 0.000368264 2.9e-07 0.000253054)
(0.000770147 -4.13e-06 -7.29e-06 0.000358657 2.9e-07 0.000247407)
(0.000742413 -7.1e-06 -6.86e-06 0.000348673 2.6e-07 0.000241733)
(0.000716516 -1.011e-05 -6.45e-06 0.000337586 2.2e-07 0.000234466)
(0.000691796 -1.307e-05 -6.1e-06 0.000325786 1.8e-07 0.000226146)
(0.00066702 -1.589e-05 -5.74e-06 0.00031369 1.7e-07 0.00021716)
(0.000643929 -1.862e-05 -5.49e-06 0.000300639 2e-07 0.000206889)
(0.000619077 -2.189e-05 -5.19e-06 0.000288067 2.4e-07 0.000197747)
(0.000597451 -2.409e-05 -5.03e-06 0.000274471 2.8e-07 0.000186961)
(0.000576102 -2.615e-05 -4.9e-06 0.000260972 3.3e-07 0.000176412)
(0.000555059 -2.76e-05 -4.82e-06 0.000247539 4.2e-07 0.000166039)
(0.000533982 -2.837e-05 -4.78e-06 0.000234072 5.4e-07 0.000155772)
(0.000511929 -2.847e-05 -4.78e-06 0.000220709 7.3e-07 0.000146149)
(0.0004888 -2.771e-05 -4.82e-06 0.00020737 9.4e-07 0.00013714)
(0.000464119 -2.6e-05 -4.88e-06 0.000194089 1.16e-06 0.000128839)
(0.000437502 -2.338e-05 -4.91e-06 0.000180862 1.37e-06 0.000121112)
(0.000408277 -1.999e-05 -4.87e-06 0.000167807 1.54e-06 0.000114027)
(0.000375227 -1.583e-05 -4.7e-06 0.000155297 1.69e-06 0.000108167)
(0.000342103 -1.206e-05 -4.44e-06 0.000142173 1.75e-06 0.000100983)
(0.000304656 -7.99e-06 -3.97e-06 0.000129986 1.77e-06 9.5326e-05)
(0.00026694 -4.62e-06 -3.37e-06 0.00011768 1.72e-06 8.902e-05)
(0.000230987 -2.23e-06 -2.77e-06 0.000104847 1.64e-06 8.13973e-05)
(0.000193219 -3.5e-07 -1.97e-06 9.34093e-05 1.49e-06 7.53593e-05)
(0.000158284 5.9e-07 -1.23e-06 8.1984e-05 1.31e-06 6.8724e-05)
(0.00012971 7.9e-07 -7.8e-07 6.961e-05 1.14e-06 5.99e-05)
(0.000103527 6.8e-07 -4.2e-07 5.80167e-05 9.4e-07 5.15067e-05)
(8.11386e-05 4.6e-07 -2e-07 4.67186e-05 7.2e-07 4.27186e-05)
(6.2064e-05 2.7e-07 -1e-07 3.5914e-05 5e-07 3.3734e-05)
(4.59015e-05 1.5e-07 -6e-08 2.57615e-05 3.1e-07 2.47415e-05)
(3.23545e-05 9e-08 -4e-08 1.64645e-05 1.8e-07 1.60545e-05)
(1.99387e-05 4e-08 -3e-08 8.96873e-06 6e-08 8.88873e-06)
(9.88285e-06 1e-08 -2e-08 3.15285e-06 2e-08 3.15285e-06)
(1.45366e-06 0 0 1.93659e-07 0 1.93659e-07)
(0.00222856 -1.18e-06 -5.219e-05 0.000612537 -6e-08 0.000288467)
(0.0022323 -3.63e-06 -5.222e-05 0.00060895 2e-07 0.00028553)
(0.00223431 -4.3e-06 -5.193e-05 0.00060373 3.7e-07 0.00028279)
(0.00222991 -3.75e-06 -5.122e-05 0.000600733 4.5e-07 0.000283093)
(0.00222432 -1.9e-06 -5.074e-05 0.000597223 5.4e-07 0.000283793)
(0.00221258 1.47e-06 -4.999e-05 0.000595137 5e-07 0.000285367)
(0.00218476 4.57e-06 -4.889e-05 0.000595007 5.5e-07 0.000288847)
(0.00214792 4.8e-06 -4.728e-05 0.00059415 6.9e-07 0.00029243)
(0.00211628 3.01e-06 -4.591e-05 0.000591123 8.2e-07 0.000295263)
(0.00208584 1.45e-06 -4.471e-05 0.000588877 8.6e-07 0.000299867)
(0.00205487 8.5e-07 -4.373e-05 0.00058601 9.8e-07 0.0003041)
(0.00201455 2e-06 -4.244e-05 0.00058314 9.7e-07 0.00030931)
(0.00196697 3.39e-06 -4.087e-05 0.00057855 9.2e-07 0.00031229)
(0.00190796 2.97e-06 -3.871e-05 0.000574747 9e-07 0.000316247)
(0.00184706 -1e-08 -3.669e-05 0.00056934 8.5e-07 0.00031852)
(0.00178453 -5.06e-06 -3.447e-05 0.000562513 8.6e-07 0.000319513)
(0.00172643 -1.126e-05 -3.271e-05 0.00055239 8.7e-07 0.0003172)
(0.00166714 -1.878e-05 -3.086e-05 0.00054145 7.4e-07 0.00031447)
(0.00161346 -2.615e-05 -2.925e-05 0.00052731 5.9e-07 0.0003077)
(0.00156167 -3.379e-05 -2.771e-05 0.000511813 4.7e-07 0.000299133)
(0.00151129 -4.104e-05 -2.628e-05 0.00049496 4.5e-07 0.00028851)
(0.00146289 -4.8e-05 -2.514e-05 0.000476557 5.5e-07 0.000276017)
(0.00141467 -5.489e-05 -2.406e-05 0.000457643 7e-07 0.000263303)
(0.0013693 -6.095e-05 -2.322e-05 0.000437487 8.8e-07 0.000249377)
(0.00132452 -6.618e-05 -2.254e-05 0.000417114 1.19e-06 0.000235714)
(0.00128164 -6.95e-05 -2.214e-05 0.000395974 1.57e-06 0.000221334)
(0.00123722 -7.122e-05 -2.188e-05 0.000374953 2.13e-06 0.000207903)
(0.00119012 -7.101e-05 -2.173e-05 0.000354222 2.87e-06 0.000195842)
(0.00114012 -6.88e-05 -2.171e-05 0.000333667 3.69e-06 0.000185087)
(0.00108487 -6.428e-05 -2.171e-05 0.000313919 4.56e-06 0.000176719)
(0.00102481 -5.773e-05 -2.158e-05 0.000294597 5.32e-06 0.000169667)
(0.000957938 -4.942e-05 -2.113e-05 0.000276238 5.96e-06 0.000164448)
(0.000882957 -3.979e-05 -2.017e-05 0.000259287 6.45e-06 0.000161307)
(0.000806394 -3.06e-05 -1.89e-05 0.000241224 6.67e-06 0.000156174)
(0.000719667 -2.106e-05 -1.681e-05 0.000225717 6.71e-06 0.000154167)
(0.00063148 -1.293e-05 -1.428e-05 0.00020982 6.53e-06 0.0001508)
(0.000542966 -6.55e-06 -1.138e-05 0.000193696 6.15e-06 0.000146256)
(0.000457747 -2.18e-06 -8.42e-06 0.000176957 5.64e-06 0.000139977)
(0.000376169 4.1e-07 -5.49e-06 0.000160239 4.97e-06 0.000132769)
(0.000308788 1.23e-06 -3.62e-06 0.000139758 4.36e-06 0.000119758)
(0.000244737 1.32e-06 -1.91e-06 0.000120727 3.53e-06 0.000107537)
(0.000190271 9.7e-07 -9e-07 0.000100631 2.68e-06 9.27407e-05)
(0.00014549 5.8e-07 -4.6e-07 7.942e-05 1.91e-06 7.521e-05)
(0.000106213 3.1e-07 -2.5e-07 5.89927e-05 1.17e-06 5.71927e-05)
(7.26933e-05 1.6e-07 -1.6e-07 3.95433e-05 6.1e-07 3.90133e-05)
(4.46446e-05 8e-08 -1.1e-07 2.19846e-05 2.8e-07 2.19846e-05)
(1.99995e-05 2e-08 -5e-08 8.85953e-06 6e-08 8.93953e-06)
(2.70135e-06 0 -1e-08 7.21347e-07 0 7.41347e-07)
(0.00354754 -2.27e-06 -0.00012808 0.000577463 -1e-07 9.41133e-05)
(0.0035541 -6.36e-06 -0.00012798 0.000571817 4.4e-07 8.94067e-05)
(0.0035598 -8.17e-06 -0.00012744 0.00056313 8.3e-07 8.457e-05)
(0.00355813 -7.38e-06 -0.00012616 0.00055692 1.07e-06 8.345e-05)
(0.00355189 -5.39e-06 -0.00012495 0.000551703 1.26e-06 8.40333e-05)
(0.00353641 -1.5e-07 -0.00012354 0.000549043 1.28e-06 8.69233e-05)
(0.00349425 5.55e-06 -0.00012115 0.000551857 1.32e-06 9.51767e-05)
(0.00344005 5.96e-06 -0.00011776 0.00055425 1.52e-06 0.0001037)
(0.00339113 2.81e-06 -0.00011465 0.00055448 1.8e-06 0.00011232)
(0.00334654 8.4e-07 -0.0001123 0.000554603 1.89e-06 0.000121883)
(0.00329701 6.4e-07 -0.00010997 0.000555713 2.14e-06 0.000133533)
(0.00323768 2.32e-06 -0.00010727 0.000556263 2.05e-06 0.000144973)
(0.00316179 4.17e-06 -0.00010339 0.000557823 1.84e-06 0.000157443)
(0.00307356 2.85e-06 -9.873e-05 0.000559733 1.75e-06 0.000169783)
(0.00297814 -2.74e-06 -9.389e-05 0.000561723 1.59e-06 0.000182513)
(0.00288354 -1.14e-05 -8.896e-05 0.000560607 1.52e-06 0.000192177)
(0.002793 -2.224e-05 -8.458e-05 0.000555743 1.51e-06 0.000198373)
(0.00270658 -3.447e-05 -8.063e-05 0.000547387 1.24e-06 0.000201037)
(0.00262422 -4.793e-05 -7.663e-05 0.000535943 8.9e-07 0.000200413)
(0.00254926 -6.013e-05 -7.335e-05 0.000520567 6.7e-07 0.000194667)
(0.00247358 -7.274e-05 -7.001e-05 0.000504157 7.3e-07 0.000187767)
(0.00239599 -8.518e-05 -6.67e-05 0.000487413 9.9e-07 0.000180653)
(0.00232469 -9.612e-05 -6.423e-05 0.00046732 1.4e-06 0.00016977)
(0.00225682 -0.00010581 -6.225e-05 0.000445327 1.96e-06 0.000157417)
(0.00218878 -0.00011398 -6.063e-05 0.000423127 2.84e-06 0.000146017)
(0.00212182 -0.00011905 -5.953e-05 0.000400107 3.92e-06 0.000134427)
(0.00205049 -0.00012106 -5.863e-05 0.000377887 5.39e-06 0.000125247)
(0.00197455 -0.0001198 -5.792e-05 0.00035632 7.17e-06 0.00011821)
(0.00189145 -0.00011516 -5.731e-05 0.000336163 9.15e-06 0.000114523)
(0.00180126 -0.00010723 -5.669e-05 0.000317203 1.108e-05 0.000113573)
(0.00170042 -9.602e-05 -5.56e-05 0.000300533 1.285e-05 0.000116543)
(0.00159022 -8.247e-05 -5.38e-05 0.000285416 1.425e-05 0.000121636)
(0.0014668 -6.707e-05 -5.084e-05 0.000273305 1.527e-05 0.000130415)
(0.00133449 -5.146e-05 -4.673e-05 0.000262531 1.576e-05 0.000140041)
(0.00119423 -3.66e-05 -4.141e-05 0.000252945 1.574e-05 0.000150065)
(0.00105297 -2.39e-05 -3.537e-05 0.000242181 1.528e-05 0.000157281)
(0.000900187 -1.274e-05 -2.75e-05 0.000235627 1.427e-05 0.000168447)
(0.000763886 -5.6e-06 -2.076e-05 0.000222476 1.309e-05 0.000170066)
(0.000636829 -1.22e-06 -1.462e-05 0.000206769 1.17e-05 0.000167389)
(0.000511382 1.24e-06 -8.46e-06 0.000192852 9.82e-06 0.000165622)
(0.00040861 1.71e-06 -4.71e-06 0.00017207 8.02e-06 0.00015431)
(0.000321675 1.38e-06 -2.5e-06 0.000147595 6.25e-06 0.000137135)
(0.000245559 8.8e-07 -1.25e-06 0.000121509 4.45e-06 0.000116459)
(0.000179407 4.8e-07 -6.8e-07 9.40873e-05 2.79e-06 9.24273e-05)
(0.000124158 2.5e-07 -4.5e-07 6.4978e-05 1.63e-06 6.4988e-05)
(7.27311e-05 1e-07 -2.5e-07 3.90011e-05 6e-07 3.95311e-05)
(3.22298e-05 3e-08 -1.2e-07 1.61298e-05 1.7e-07 1.65298e-05)
(4.00781e-06 0 -2e-08 1.52781e-06 1e-08 1.59781e-06)
(0.00476641 -3.07e-06 -0.00022913 0.00046326 -1e-07 -0.00015967)
(0.00477599 -8.4e-06 -0.0002289 0.000455427 7e-07 -0.000166073)
(0.00478586 -1.175e-05 -0.00022799 0.00044346 1.48e-06 -0.00017307)
(0.00478945 -1.117e-05 -0.0002261 0.000433497 1.93e-06 -0.000176323)
(0.0047866 -7.85e-06 -0.00022409 0.00042527 2.22e-06 -0.0001772)
(0.00477261 -1.68e-06 -0.00022247 0.000420503 2.41e-06 -0.000174807)
(0.00472081 6.55e-06 -0.00021862 0.000425223 2.34e-06 -0.000162997)
(0.00465172 6.51e-06 -0.00021266 0.000431177 2.56e-06 -0.000149253)
(0.00459359 2.67e-06 -0.00020795 0.00043271 3e-06 -0.00013768)
(0.00453764 3.3e-07 -0.00020439 0.000435393 3.23e-06 -0.000123007)
(0.0044765 1.13e-06 -0.00020087 0.000439163 3.52e-06 -0.000106257)
(0.00440205 3.14e-06 -0.00019642 0.000443157 3.24e-06 -8.89333e-05)
(0.00430907 4.02e-06 -0.00019021 0.00044826 2.83e-06 -7.097e-05)
(0.00419887 1.1e-06 -0.00018253 0.000455127 2.61e-06 -5.16133e-05)
(0.00408138 -7.39e-06 -0.0001748 0.00046159 2.33e-06 -3.229e-05)
(0.00396475 -1.937e-05 -0.00016706 0.000464497 2.14e-06 -1.65333e-05)
(0.00384945 -3.461e-05 -0.00015958 0.00046427 2.01e-06 -3.26e-06)
(0.00373863 -5.205e-05 -0.00015263 0.00045988 1.59e-06 5.99e-06)
(0.00363694 -7.019e-05 -0.00014627 0.00044975 1.08e-06 9.15e-06)
(0.00353904 -8.796e-05 -0.00014028 0.000436587 7.9e-07 9.05667e-06)
(0.00344124 -0.00010449 -0.0001346 0.000421777 9.2e-07 6.82667e-06)
(0.00334353 -0.00011998 -0.00012936 0.00040528 1.43e-06 2.93e-06)
(0.00324735 -0.00013452 -0.00012463 0.000386917 2.28e-06 -2.44333e-06)
(0.00315261 -0.0001475 -0.00012059 0.00036705 3.66e-06 -8.15e-06)
(0.00306109 -0.00015725 -0.00011772 0.000345327 5.43e-06 -1.47133e-05)
(0.00296538 -0.00016304 -0.00011539 0.00032448 7.77e-06 -1.83e-05)
(0.0028652 -0.00016423 -0.0001134 0.000304263 1.053e-05 -1.97267e-05)
(0.0027575 -0.00016097 -0.00011148 0.000285597 1.372e-05 -1.76933e-05)
(0.00263932 -0.0001534 -0.00010948 0.00026949 1.717e-05 -1.081e-05)
(0.00250957 -0.0001417 -0.00010713 0.00025618 2.057e-05 9.1e-07)
(0.00236878 -0.00012652 -0.00010402 0.000245297 2.353e-05 1.61067e-05)
(0.00221392 -0.00010847 -9.953e-05 0.000237797 2.591e-05 3.54267e-05)
(0.00204369 -8.86e-05 -9.314e-05 0.000234193 2.754e-05 5.88433e-05)
(0.00186639 -6.898e-05 -8.54e-05 0.00023103 2.825e-05 8.118e-05)
(0.00167351 -4.978e-05 -7.519e-05 0.000232167 2.814e-05 0.000107287)
(0.00147704 -3.297e-05 -6.364e-05 0.000233055 2.72e-05 0.000131135)
(0.00127729 -1.906e-05 -5.074e-05 0.000234544 2.552e-05 0.000153784)
(0.00108751 -9.04e-06 -3.838e-05 0.000231847 2.334e-05 0.000169647)
(0.0009063 -2.45e-06 -2.665e-05 0.0002268 2.068e-05 0.00018111)
(0.000739179 1.06e-06 -1.665e-05 0.000217939 1.76e-05 0.000186549)
(0.000596261 2.14e-06 -9.84e-06 0.000201241 1.453e-05 0.000181411)
(0.000467007 2.01e-06 -5.05e-06 0.000181657 1.114e-05 0.000171167)
(0.000357193 1.37e-06 -2.56e-06 0.000156133 7.93e-06 0.000152263)
(0.000264289 7.9e-07 -1.47e-06 0.000125169 5.19e-06 0.000125189)
(0.000179617 3.8e-07 -8.9e-07 9.23667e-05 2.78e-06 9.40367e-05)
(0.000106233 1.5e-07 -5.1e-07 5.72327e-05 1.15e-06 5.90227e-05)
(4.60576e-05 4e-08 -2.3e-07 2.46776e-05 3.1e-07 2.57076e-05)
(5.53555e-06 0 -3e-08 2.45555e-06 1e-08 2.61555e-06)
(0.00572848 -3.27e-06 -0.00034168 0.000374227 -1e-08 -0.000364883)
(0.0057401 -9.07e-06 -0.00034133 0.000364627 9.8e-07 -0.000372243)
(0.00575327 -1.389e-05 -0.00033989 0.00035035 2.25e-06 -0.0003807)
(0.00576639 -1.351e-05 -0.00033791 0.00033514 3e-06 -0.00038737)
(0.00577078 -8.99e-06 -0.00033527 0.00032298 3.36e-06 -0.000391)
(0.00576153 -1.22e-06 -0.00033372 0.000315417 3.79e-06 -0.000390003)
(0.00570676 8.48e-06 -0.00032845 0.00031997 3.54e-06 -0.00037701)
(0.00563318 8.1e-06 -0.00032022 0.000326017 3.65e-06 -0.000361963)
(0.0055719 3.64e-06 -0.000314 0.00032742 4.28e-06 -0.00034926)
(0.00551239 1.24e-06 -0.00030975 0.000330393 4.76e-06 -0.000332407)
(0.00544735 2.7e-06 -0.00030559 0.00033469 4.94e-06 -0.0003134)
(0.005367 4.1e-06 -0.00029955 0.00033941 4.4e-06 -0.00029374)
(0.00526716 2.96e-06 -0.00029115 0.00034488 3.75e-06 -0.00027384)
(0.00514849 -2.85e-06 -0.00028069 0.000352237 3.36e-06 -0.000252393)
(0.00502137 -1.452e-05 -0.00027041 0.000359273 2.91e-06 -0.000230807)
(0.00489373 -3e-05 -0.00026002 0.00036292 2.53e-06 -0.00021257)
(0.00476699 -4.87e-05 -0.00025003 0.00036308 2.25e-06 -0.00019723)
(0.0046423 -7.034e-05 -0.00024007 0.00035941 1.73e-06 -0.00018504)
(0.00452616 -9.262e-05 -0.00023101 0.000349603 1.16e-06 -0.000178627)
(0.00441444 -0.00011291 -0.00022295 0.000336053 9e-07 -0.000176237)
(0.00430029 -0.00013129 -0.0002151 0.00032143 1.23e-06 -0.00017512)
(0.00418201 -0.00014819 -0.00020734 0.000306377 2.14e-06 -0.000173823)
(0.00406343 -0.00016361 -0.00020016 0.000289683 3.63e-06 -0.000173477)
(0.00394555 -0.00017679 -0.000194 0.0002715 6.01e-06 -0.00017323)
(0.00382704 -0.00018631 -0.00018922 0.000252707 9.21e-06 -0.000171623)
(0.00370374 -0.00019088 -0.00018525 0.000234927 1.306e-05 -0.000166743)
(0.0035721 -0.00018998 -0.00018133 0.000219113 1.755e-05 -0.000157527)
(0.00343099 -0.00018389 -0.00017717 0.00020559 2.25e-05 -0.00014392)
(0.00328018 -0.00017332 -0.00017272 0.000194393 2.756e-05 -0.000126167)
(0.00311795 -0.0001587 -0.00016754 0.000186057 3.241e-05 -0.000103823)
(0.0029429 -0.00014064 -0.00016096 0.000180983 3.669e-05 -7.70467e-05)
(0.00275527 -0.00012012 -0.00015275 0.000179003 4.001e-05 -4.71567e-05)
(0.00255346 -9.814e-05 -0.00014221 0.000180693 4.223e-05 -1.40167e-05)
(0.00233823 -7.601e-05 -0.00012914 0.000185663 4.323e-05 2.12733e-05)
(0.00211294 -5.503e-05 -0.00011404 0.00019292 4.297e-05 5.688e-05)
(0.00187977 -3.63e-05 -9.674e-05 0.000201857 4.156e-05 9.20767e-05)
(0.00164391 -2.076e-05 -7.807e-05 0.000211051 3.91e-05 0.000125071)
(0.00141192 -9.03e-06 -5.94e-05 0.000218499 3.577e-05 0.000153649)
(0.0011895 -1.23e-06 -4.189e-05 0.000222863 3.171e-05 0.000176523)
(0.000983869 2.96e-06 -2.726e-05 0.000221709 2.718e-05 0.000191189)
(0.000797277 4.35e-06 -1.612e-05 0.000214567 2.229e-05 0.000197167)
(0.000632205 3.99e-06 -8.82e-06 0.000200335 1.729e-05 0.000193175)
(0.000486591 2.84e-06 -4.64e-06 0.000179431 1.24e-05 0.000179471)
(0.000357821 1.6e-06 -2.64e-06 0.000152041 7.92e-06 0.000155961)
(0.000246274 8e-07 -1.68e-06 0.000116244 4.43e-06 0.000121304)
(0.000145996 3.1e-07 -1e-06 7.5076e-05 1.9e-06 7.9276e-05)
(6.22821e-05 7e-08 -4.2e-07 3.36921e-05 5e-07 3.58521e-05)
(7.33301e-06 0 -6e-08 3.42301e-06 2e-08 3.77301e-06)
(0.00635604 -2.85e-06 -0.00045024 0.00036055 2.2e-07 -0.00047059)
(0.00636807 -8.42e-06 -0.00044967 0.000349987 1.31e-06 -0.000477853)
(0.00638347 -1.42e-05 -0.0004476 0.000334387 3.1e-06 -0.000486843)
(0.00640696 -1.393e-05 -0.00044606 0.000314317 4.26e-06 -0.000496793)
(0.00642109 -7.94e-06 -0.00044339 0.000297703 4.59e-06 -0.000503597)
(0.00641928 1.21e-06 -0.00044224 0.00028675 5.26e-06 -0.00050484)
(0.00636706 1.084e-05 -0.00043588 0.000289543 4.8e-06 -0.000492707)
(0.00629725 1.001e-05 -0.00042575 0.000292993 4.73e-06 -0.000479387)
(0.00623974 5.39e-06 -0.00041863 0.000292013 5.54e-06 -0.000467997)
(0.00618343 3.3e-06 -0.00041433 0.000293173 6.32e-06 -0.000451667)
(0.00612119 4.71e-06 -0.00041015 0.000295937 6.19e-06 -0.000433243)
(0.00604317 4.65e-06 -0.00040313 0.000298693 5.36e-06 -0.000414667)
(0.00594651 4.2e-07 -0.00039318 0.00030114 4.5e-06 -0.00039681)
(0.0058325 -9.23e-06 -0.00038077 0.000304053 3.94e-06 -0.000378447)
(0.00570753 -2.397e-05 -0.00036871 0.000307387 3.3e-06 -0.000359053)
(0.00557952 -4.215e-05 -0.00035661 0.00030808 2.74e-06 -0.0003424)
(0.00544997 -6.39e-05 -0.00034436 0.00030558 2.24e-06 -0.00032794)
(0.00532022 -8.781e-05 -0.00033212 0.00029963 1.75e-06 -0.00031603)
(0.0051967 -0.00011147 -0.00032115 0.000287873 1.34e-06 -0.000308937)
(0.0050742 -0.00013218 -0.00031115 0.000273143 1.27e-06 -0.000304417)
(0.00494524 -0.0001499 -0.0003011 0.000258527 1.96e-06 -0.000299643)
(0.0048091 -0.00016559 -0.00029098 0.000244303 3.4e-06 -0.000293627)
(0.0046695 -0.00017919 -0.0002812 0.00022928 5.74e-06 -0.0002873)
(0.00452845 -0.00018997 -0.00027251 0.000213463 9.36e-06 -0.000280157)
(0.0043833 -0.00019652 -0.00026516 0.00019829 1.429e-05 -0.00026974)
(0.00423298 -0.00019828 -0.0002587 0.00018425 1.998e-05 -0.00025587)
(0.00407425 -0.0001946 -0.00025199 0.00017239 2.626e-05 -0.0002375)
(0.00390731 -0.00018591 -0.00024473 0.00016246 3.287e-05 -0.00021525)
(0.00373125 -0.00017284 -0.00023652 0.000154753 3.953e-05 -0.000188897)
(0.00354671 -0.00015624 -0.0002272 0.00014906 4.578e-05 -0.00015919)
(0.00335334 -0.00013689 -0.00021665 0.000145563 5.11e-05 -0.000126877)
(0.00314872 -0.00011541 -0.00020355 0.000144947 5.532e-05 -9.14933e-05)
(0.00293272 -9.289e-05 -0.00018857 0.0001476 5.801e-05 -5.41e-05)
(0.00270488 -7.036e-05 -0.00017075 0.000153377 5.918e-05 -1.50033e-05)
(0.00246662 -4.898e-05 -0.00015004 0.000161823 5.874e-05 2.47433e-05)
(0.00221996 -2.987e-05 -0.00012752 0.000172647 5.681e-05 6.40467e-05)
(0.00196806 -1.391e-05 -0.00010411 0.000184983 5.362e-05 0.000101793)
(0.00171596 -1.85e-06 -7.948e-05 0.000196833 4.903e-05 0.000136363)
(0.00147022 6.08e-06 -5.728e-05 0.000206591 4.37e-05 0.000165641)
(0.00123537 1.002e-05 -3.79e-05 0.000212509 3.754e-05 0.000188249)
(0.00101653 1.07e-05 -2.296e-05 0.00021281 3.088e-05 0.00020229)
(0.000814173 9.02e-06 -1.269e-05 0.000207263 2.388e-05 0.000207343)
(0.000633419 6.53e-06 -6.93e-06 0.000192749 1.724e-05 0.000200009)
(0.000469613 3.87e-06 -4.16e-06 0.000170173 1.112e-05 0.000180723)
(0.000322674 1.89e-06 -2.75e-06 0.000136984 6.18e-06 0.000147374)
(0.000191317 7e-07 -1.69e-06 9.24667e-05 2.65e-06 0.000100317)
(8.17759e-05 1.7e-07 -7.4e-07 4.25059e-05 7.2e-07 4.65159e-05)
(9.58354e-06 1e-08 -1e-07 4.31354e-06 4e-08 4.98354e-06)
(0.00669363 -2.01e-06 -0.00054661 0.000410223 5.8e-07 -0.000490747)
(0.00670475 -7.06e-06 -0.00054561 0.00039952 1.75e-06 -0.00049719)
(0.00672228 -1.313e-05 -0.00054299 0.000383 4.05e-06 -0.00050612)
(0.00675498 -1.287e-05 -0.00054234 0.000359327 5.56e-06 -0.000518533)
(0.00677723 -5.87e-06 -0.00054025 0.00033964 6e-06 -0.00052719)
(0.00678349 3.94e-06 -0.00053958 0.00032533 6.69e-06 -0.00053072)
(0.00673883 1.243e-05 -0.00053234 0.000324693 5.98e-06 -0.000521507)
(0.006677 1.104e-05 -0.00052115 0.000324527 5.78e-06 -0.000511183)
(0.00662697 6.6e-06 -0.00051364 0.000320163 6.81e-06 -0.000502387)
(0.00657717 4.95e-06 -0.0005097 0.00031865 7.77e-06 -0.000488)
(0.00652288 5.69e-06 -0.00050597 0.000317967 7.22e-06 -0.000472663)
(0.00645228 2.88e-06 -0.0004983 0.000316963 6.13e-06 -0.000457507)
(0.00636506 -4.97e-06 -0.00048738 0.000314153 5.08e-06 -0.000444217)
(0.00626004 -1.784e-05 -0.00047399 0.000311527 4.44e-06 -0.000430293)
(0.00614314 -3.502e-05 -0.000461 0.000309007 3.64e-06 -0.000415283)
(0.00601982 -5.54e-05 -0.0004476 0.000304897 2.84e-06 -0.000401913)
(0.00589162 -7.867e-05 -0.00043399 0.000298537 2.2e-06 -0.000389813)
(0.00576156 -0.00010316 -0.00042 0.000288427 1.83e-06 -0.000379663)
(0.00563257 -0.00012584 -0.00040738 0.000274107 1.78e-06 -0.000372073)
(0.00550138 -0.000145 -0.00039606 0.0002578 2.11e-06 -0.00036626)
(0.00535739 -0.00016 -0.00038352 0.000243533 3.34e-06 -0.000357067)
(0.0052065 -0.00017336 -0.00037142 0.00022939 5.32e-06 -0.00034772)
(0.00504502 -0.00018253 -0.00035828 0.000216877 8.85e-06 -0.000334073)
(0.00488459 -0.00018977 -0.00034703 0.00020251 1.367e-05 -0.00032166)
(0.00471749 -0.00019234 -0.00033653 0.00018993 2.023e-05 -0.00030446)
(0.00454405 -0.00019049 -0.00032646 0.00017917 2.779e-05 -0.00028298)
(0.00436483 -0.0001842 -0.00031605 0.00016986 3.582e-05 -0.00025807)
(0.0041802 -0.00017347 -0.00030472 0.000161747 4.4e-05 -0.000230183)
(0.00399076 -0.00015892 -0.00029214 0.000154583 5.201e-05 -0.000199757)
(0.00379716 -0.00014134 -0.00027833 0.00014823 5.938e-05 -0.00016749)
(0.00359866 -0.00012145 -0.00026296 0.00014307 6.567e-05 -0.00013364)
(0.0033937 -9.987e-05 -0.00024551 0.000139763 7.051e-05 -9.83167e-05)
(0.00318086 -7.742e-05 -0.00022575 0.000138863 7.363e-05 -6.16967e-05)
(0.00296042 -5.503e-05 -0.00020332 0.000140073 7.49e-05 -2.46767e-05)
(0.00272883 -3.377e-05 -0.00017904 0.000145403 7.428e-05 1.36733e-05)
(0.00249104 -1.463e-05 -0.00015215 0.000152057 7.182e-05 5.06267e-05)
(0.00224279 1.27e-06 -0.00012457 0.00016271 6.785e-05 8.804e-05)
(0.00199341 1.314e-05 -9.604e-05 0.00017282 6.221e-05 0.0001218)
(0.0017394 2.068e-05 -7.016e-05 0.000184963 5.575e-05 0.000154073)
(0.00149093 2.351e-05 -4.676e-05 0.000194189 4.793e-05 0.000180409)
(0.00125038 2.269e-05 -2.872e-05 0.000199875 3.964e-05 0.000200055)
(0.00101987 1.885e-05 -1.612e-05 0.000200885 3.087e-05 0.000211645)
(0.000801211 1.348e-05 -8.75e-06 0.000195741 2.219e-05 0.000213241)
(0.000600213 8.37e-06 -5.41e-06 0.000180083 1.444e-05 0.000199903)
(0.000411653 4.02e-06 -3.81e-06 0.000153413 7.95e-06 0.000171093)
(0.000246695 1.67e-06 -2.49e-06 0.000107025 3.5e-06 0.000120125)
(0.00010432 3.7e-07 -1.12e-06 5.134e-05 9.3e-07 5.778e-05)
(1.20608e-05 2e-08 -1.5e-07 5.2808e-06 5e-08 6.3208e-06)
(0.00679558 -9.9e-07 -0.00062743 0.00050531 9.9e-07 -0.00044301)
(0.00680514 -5.47e-06 -0.00062574 0.000495147 2.36e-06 -0.000448383)
(0.00682564 -1.111e-05 -0.00062296 0.000477533 5.09e-06 -0.000457137)
(0.0068652 -1.028e-05 -0.00062341 0.000451767 7.02e-06 -0.000470833)
(0.00689475 -3.35e-06 -0.00062249 0.000429717 7.5e-06 -0.000480673)
(0.0069075 5.99e-06 -0.00062235 0.000413077 8e-06 -0.000485773)
(0.00687026 1.233e-05 -0.0006143 0.00040958 7.15e-06 -0.00047927)
(0.00681856 1.049e-05 -0.00060272 0.000405407 6.97e-06 -0.000472623)
(0.00677787 6.25e-06 -0.00059531 0.000397233 8.1e-06 -0.000467187)
(0.00673746 4.83e-06 -0.00059196 0.000391787 8.91e-06 -0.000456313)
(0.00669145 4.18e-06 -0.00058876 0.000387607 8e-06 -0.000444653)
(0.00663 -1.53e-06 -0.00058098 0.000382217 6.67e-06 -0.000433913)
(0.00655437 -1.276e-05 -0.00056935 0.000373347 5.56e-06 -0.000426213)
(0.00646049 -2.828e-05 -0.0005556 0.000364453 4.89e-06 -0.000417507)
(0.00635217 -4.709e-05 -0.00054221 0.00035616 3.98e-06 -0.0004069)
(0.00623507 -6.849e-05 -0.0005279 0.000346507 3.02e-06 -0.000397223)
(0.00611032 -9.178e-05 -0.00051318 0.000335097 2.32e-06 -0.000387973)
(0.00598022 -0.00011509 -0.00049831 0.000321117 2.15e-06 -0.000379673)
(0.00584732 -0.000135 -0.00048468 0.000303887 2.57e-06 -0.000372343)
(0.00570522 -0.00015055 -0.00047115 0.000286703 3.62e-06 -0.000363527)
(0.00555184 -0.00016337 -0.00045725 0.00027122 5.25e-06 -0.00035334)
(0.00538184 -0.00017145 -0.0004414 0.00025899 8.29e-06 -0.00033749)
(0.00520788 -0.00017761 -0.00042613 0.00024615 1.258e-05 -0.00032175)
(0.005028 -0.00017933 -0.00041064 0.00023392 1.898e-05 -0.0003031)
(0.00484507 -0.00017809 -0.00039643 0.000222403 2.692e-05 -0.000281897)
(0.00465736 -0.00017331 -0.00038233 0.000212573 3.596e-05 -0.000256857)
(0.00446601 -0.00016491 -0.00036735 0.00020392 4.553e-05 -0.00022879)
(0.00427355 -0.00015289 -0.00035127 0.000195337 5.509e-05 -0.000199083)
(0.00408145 -0.00013771 -0.00033415 0.000186363 6.42e-05 -0.000168457)
(0.00389038 -0.00011976 -0.00031558 0.00017682 7.251e-05 -0.00013739)
(0.00369971 -9.972e-05 -0.00029553 0.00016716 7.955e-05 -0.00010607)
(0.00350775 -7.812e-05 -0.00027382 0.00015823 8.491e-05 -7.444e-05)
(0.00331349 -5.569e-05 -0.00025012 0.00015037 8.832e-05 -4.29e-05)
(0.00311086 -3.331e-05 -0.00022489 0.000146463 8.961e-05 -9.54667e-06)
(0.00290772 -1.18e-05 -0.00019705 0.00014201 8.874e-05 2.089e-05)
(0.00269103 7.46e-06 -0.00016796 0.000143397 8.589e-05 5.36467e-05)
(0.00247225 2.36e-05 -0.00013721 0.000144197 8.102e-05 8.24967e-05)
(0.00223757 3.53e-05 -0.00010672 0.000151293 7.462e-05 0.000113773)
(0.00199341 4.214e-05 -7.778e-05 0.000161013 6.688e-05 0.000144093)
(0.00174687 4.351e-05 -5.193e-05 0.000169627 5.768e-05 0.000169967)
(0.00149477 4.051e-05 -3.162e-05 0.000178756 4.787e-05 0.000193006)
(0.00124099 3.326e-05 -1.721e-05 0.000186172 3.729e-05 0.000210662)
(0.000991059 2.438e-05 -9.01e-06 0.000188609 2.699e-05 0.000219169)
(0.000746823 1.514e-05 -5.58e-06 0.000183803 1.749e-05 0.000215143)
(0.000516368 7.69e-06 -4.25e-06 0.000164128 9.72e-06 0.000191178)
(0.00031193 3.35e-06 -2.94e-06 0.00011893 4.31e-06 0.00013875)
(0.000130929 7.2e-07 -1.43e-06 5.96693e-05 1.13e-06 6.92593e-05)
(1.48707e-05 3e-08 -2e-07 6.29067e-06 5e-08 7.76067e-06)
(0.00672368 -2.4e-07 -0.00069256 0.00062557 1.37e-06 -0.00034869)
(0.00673141 -4.15e-06 -0.00069001 0.000616447 3.2e-06 -0.000352863)
(0.00675549 -8.91e-06 -0.00068753 0.00059779 6.2e-06 -0.00036148)
(0.00679949 -7.07e-06 -0.00068884 0.000571243 8.33e-06 -0.000375417)
(0.00683331 -1.06e-06 -0.00068935 0.000548547 9.1e-06 -0.000385293)
(0.00685178 6.45e-06 -0.00068991 0.00052987 9.18e-06 -0.00039177)
(0.0068221 1.071e-05 -0.00068156 0.000523477 8.35e-06 -0.000387843)
(0.00678006 8.28e-06 -0.00066972 0.00051571 8.22e-06 -0.00038461)
(0.00674788 3.96e-06 -0.00066288 0.00050432 9.34e-06 -0.00038233)
(0.00671634 2.22e-06 -0.00066038 0.00049499 9.83e-06 -0.00037517)