/*--------------------------------*- C++ -*----------------------------------*\
| =========                 |                                                 |
| \\      /  F ield         | OpenFOAM: The Open Source CFD Toolbox           |
|  \\    /   O peration     | Version:  2112                                  |
|   \\  /    A nd           | Website:  www.openfoam.com                      |
|    \\/     M anipulation  |                                                 |
\*---------------------------------------------------------------------------*/
FoamFile
{
    version     2.0;
    format      ascii;
    arch        "LSB;label=32;scalar=64";
    class       volSymmTensorField;
    location    "5000";
    object      Aij_HF;
}
// * * * * * * * * * * * * * * * * * * * * * * * * * * * * * * * * * * * * * //

dimensions      [0 2 -2 0 0 0 0];

internalField   nonuniform List<symmTensor> 
2304
(
(4.797e-05 -2e-08 -4.8e-07 -1.175e-05 0 -3.622e-05)
(4.826e-05 -1.3e-07 -4.8e-07 -1.193e-05 0 -3.633e-05)
(4.831e-05 -1.2e-07 -4.8e-07 -1.203e-05 0 -3.628e-05)
(4.819e-05 -6e-08 -4.7e-07 -1.21e-05 1e-08 -3.608e-05)
(4.799e-05 9e-08 -4.6e-07 -1.219e-05 1e-08 -3.58e-05)
(4.762e-05 2.9e-07 -4.5e-07 -1.214e-05 1e-08 -3.547e-05)
(4.67e-05 4.4e-07 -4.4e-07 -1.183e-05 1e-08 -3.487e-05)
(4.563e-05 4.8e-07 -4.2e-07 -1.148e-05 1e-08 -3.415e-05)
(4.463e-05 3.7e-07 -4e-07 -1.123e-05 1e-08 -3.34e-05)
(4.364e-05 2.2e-07 -3.9e-07 -1.104e-05 1e-08 -3.26e-05)
(4.285e-05 1.6e-07 -3.8e-07 -1.092e-05 1e-08 -3.193e-05)
(4.173e-05 2e-07 -3.7e-07 -1.068e-05 1e-08 -3.105e-05)
(4.024e-05 2.9e-07 -3.5e-07 -1.03e-05 2e-08 -2.994e-05)
(3.867e-05 2.8e-07 -3.3e-07 -9.84e-06 2e-08 -2.883e-05)
(3.681e-05 1.2e-07 -3.1e-07 -9.27e-06 2e-08 -2.753e-05)
(3.537e-05 -1.1e-07 -2.9e-07 -8.86e-06 2e-08 -2.651e-05)
(3.366e-05 -4.8e-07 -2.7e-07 -8.39e-06 2e-08 -2.527e-05)
(3.227e-05 -8.2e-07 -2.5e-07 -8.05e-06 2e-08 -2.422e-05)
(3.104e-05 -1.19e-06 -2.4e-07 -7.75e-06 1e-08 -2.328e-05)
(3.009e-05 -1.49e-06 -2.2e-07 -7.54e-06 1e-08 -2.255e-05)
(2.89e-05 -1.91e-06 -2.1e-07 -7.24e-06 1e-08 -2.166e-05)
(2.809e-05 -2.23e-06 -2e-07 -7.05e-06 1e-08 -2.104e-05)
(2.733e-05 -2.54e-06 -1.9e-07 -6.89e-06 1e-08 -2.044e-05)
(2.644e-05 -2.89e-06 -1.8e-07 -6.72e-06 2e-08 -1.971e-05)
(2.584e-05 -3.12e-06 -1.8e-07 -6.63e-06 2e-08 -1.921e-05)
(2.518e-05 -3.3e-06 -1.8e-07 -6.53e-06 2e-08 -1.865e-05)
(2.45e-05 -3.42e-06 -1.8e-07 -6.43e-06 3e-08 -1.808e-05)
(2.377e-05 -3.46e-06 -1.8e-07 -6.32e-06 3e-08 -1.745e-05)
(2.293e-05 -3.38e-06 -1.8e-07 -6.21e-06 4e-08 -1.673e-05)
(2.194e-05 -3.19e-06 -1.9e-07 -6.07e-06 6e-08 -1.587e-05)
(2.089e-05 -2.89e-06 -1.9e-07 -5.92e-06 6e-08 -1.498e-05)
(1.96e-05 -2.49e-06 -1.9e-07 -5.69e-06 7e-08 -1.391e-05)
(1.783e-05 -1.94e-06 -1.9e-07 -5.32e-06 8e-08 -1.25e-05)
(1.624e-05 -1.48e-06 -1.8e-07 -4.96e-06 8e-08 -1.128e-05)
(1.431e-05 -9.8e-07 -1.6e-07 -4.47e-06 9e-08 -9.84e-06)
(1.252e-05 -5.9e-07 -1.5e-07 -3.99e-06 8e-08 -8.53e-06)
(1.049e-05 -2.5e-07 -1.2e-07 -3.4e-06 8e-08 -7.09e-06)
(8.34e-06 -1e-08 -8e-08 -2.76e-06 7e-08 -5.58e-06)
(6.44e-06 1e-07 -5e-08 -2.19e-06 6e-08 -4.25e-06)
(5.18e-06 1.2e-07 -3e-08 -1.83e-06 6e-08 -3.35e-06)
(4.04e-06 1e-07 -2e-08 -1.5e-06 5e-08 -2.53e-06)
(3.24e-06 7e-08 -1e-08 -1.28e-06 4e-08 -1.96e-06)
(2.47e-06 4e-08 0 -1.06e-06 2e-08 -1.41e-06)
(1.97e-06 2e-08 0 -9.1e-07 1e-08 -1.07e-06)
(1.64e-06 2e-08 0 -7.9e-07 1e-08 -8.5e-07)
(1.3e-06 1e-08 0 -6.4e-07 0 -6.6e-07)
(8.4e-07 0 0 -4.2e-07 0 -4.2e-07)
(2.6e-07 0 0 -1.3e-07 0 -1.3e-07)
(0.00043925 -3.5e-07 -1.23e-05 -0.00014123 -2e-08 -0.00029802)
(0.00044139 -1.3e-06 -1.235e-05 -0.00014249 5e-08 -0.0002989)
(0.00044231 -1.4e-06 -1.224e-05 -0.0001435 1e-07 -0.00029881)
(0.00044088 -1.11e-06 -1.202e-05 -0.00014362 1.2e-07 -0.00029726)
(0.00043939 -3e-08 -1.19e-05 -0.000144 1.3e-07 -0.00029538)
(0.00043624 1.45e-06 -1.17e-05 -0.00014325 1.2e-07 -0.00029299)
(0.00042854 2.66e-06 -1.142e-05 -0.00014028 1.4e-07 -0.00028827)
(0.00041824 2.88e-06 -1.098e-05 -0.00013624 1.9e-07 -0.000282)
(0.00040973 2.01e-06 -1.061e-05 -0.00013352 2.2e-07 -0.00027621)
(0.0004012 1.12e-06 -1.029e-05 -0.00013106 2.4e-07 -0.00027014)
(0.00039342 7.4e-07 -1.005e-05 -0.0001289 2.7e-07 -0.00026452)
(0.00038287 1.14e-06 -9.74e-06 -0.00012566 2.9e-07 -0.00025721)
(0.00037054 1.84e-06 -9.33e-06 -0.0001215 2.8e-07 -0.00024904)
(0.00035579 1.74e-06 -8.82e-06 -0.00011613 2.8e-07 -0.00023965)
(0.00034006 5.2e-07 -8.28e-06 -0.00011032 2.7e-07 -0.00022974)
(0.00032416 -1.64e-06 -7.7e-06 -0.00010448 2.9e-07 -0.00021969)
(0.00031141 -4.13e-06 -7.29e-06 -0.00010008 2.9e-07 -0.00021133)
(0.00029814 -7.1e-06 -6.86e-06 -9.56e-05 2.6e-07 -0.00020254)
(0.00028699 -1.011e-05 -6.45e-06 -9.194e-05 2.2e-07 -0.00019506)
(0.00027722 -1.307e-05 -6.1e-06 -8.879e-05 1.8e-07 -0.00018843)
(0.00026773 -1.589e-05 -5.74e-06 -8.56e-05 1.7e-07 -0.00018213)
(0.00026011 -1.862e-05 -5.49e-06 -8.318e-05 2e-07 -0.00017693)
(0.00025078 -2.189e-05 -5.19e-06 -8.023e-05 2.4e-07 -0.00017055)
(0.00024449 -2.409e-05 -5.03e-06 -7.849e-05 2.8e-07 -0.000166)
(0.00023827 -2.615e-05 -4.9e-06 -7.686e-05 3.3e-07 -0.00016142)
(0.00023218 -2.76e-05 -4.82e-06 -7.534e-05 4.2e-07 -0.00015684)
(0.00022604 -2.837e-05 -4.78e-06 -7.387e-05 5.4e-07 -0.00015217)
(0.000219 -2.847e-05 -4.78e-06 -7.222e-05 7.3e-07 -0.00014678)
(0.00021103 -2.771e-05 -4.82e-06 -7.04e-05 9.4e-07 -0.00014063)
(0.00020177 -2.6e-05 -4.88e-06 -6.826e-05 1.16e-06 -0.00013351)
(0.00019101 -2.338e-05 -4.91e-06 -6.563e-05 1.37e-06 -0.00012538)
(0.00017824 -1.999e-05 -4.87e-06 -6.223e-05 1.54e-06 -0.00011601)
(0.00016233 -1.583e-05 -4.7e-06 -5.76e-05 1.69e-06 -0.00010473)
(0.00014702 -1.206e-05 -4.44e-06 -5.291e-05 1.75e-06 -9.41e-05)
(0.000128 -7.99e-06 -3.97e-06 -4.667e-05 1.77e-06 -8.133e-05)
(0.00010906 -4.62e-06 -3.37e-06 -4.02e-05 1.72e-06 -6.886e-05)
(9.191e-05 -2.23e-06 -2.77e-06 -3.423e-05 1.64e-06 -5.768e-05)
(7.256e-05 -3.5e-07 -1.97e-06 -2.725e-05 1.49e-06 -4.53e-05)
(5.529e-05 5.9e-07 -1.23e-06 -2.101e-05 1.31e-06 -3.427e-05)
(4.33e-05 7.9e-07 -7.8e-07 -1.68e-05 1.14e-06 -2.651e-05)
(3.251e-05 6.8e-07 -4.2e-07 -1.3e-05 9.4e-07 -1.951e-05)
(2.428e-05 4.6e-07 -2e-07 -1.014e-05 7.2e-07 -1.414e-05)
(1.816e-05 2.7e-07 -1e-07 -7.99e-06 5e-07 -1.017e-05)
(1.377e-05 1.5e-07 -6e-08 -6.37e-06 3.1e-07 -7.39e-06)
(1.073e-05 9e-08 -4e-08 -5.16e-06 1.8e-07 -5.57e-06)
(7.34e-06 4e-08 -3e-08 -3.63e-06 6e-08 -3.71e-06)
(4.49e-06 1e-08 -2e-08 -2.24e-06 2e-08 -2.24e-06)
(8.4e-07 0 0 -4.2e-07 0 -4.2e-07)
(0.00118537 -1.18e-06 -5.219e-05 -0.00043065 -6e-08 -0.00075472)
(0.00119004 -3.63e-06 -5.222e-05 -0.00043331 2e-07 -0.00075673)
(0.00119403 -4.3e-06 -5.193e-05 -0.00043655 3.7e-07 -0.00075749)
(0.001192 -3.75e-06 -5.122e-05 -0.00043718 4.5e-07 -0.00075482)
(0.00118921 -1.9e-06 -5.074e-05 -0.00043789 5.4e-07 -0.00075132)
(0.00118155 1.47e-06 -4.999e-05 -0.00043589 5e-07 -0.00074566)
(0.00116189 4.57e-06 -4.889e-05 -0.00042786 5.5e-07 -0.00073402)
(0.00113642 4.8e-06 -4.728e-05 -0.00041735 6.9e-07 -0.00071907)
(0.00111539 3.01e-06 -4.591e-05 -0.00040977 8.2e-07 -0.00070563)
(0.00109431 1.45e-06 -4.471e-05 -0.00040265 8.6e-07 -0.00069166)
(0.00107321 8.5e-07 -4.373e-05 -0.00039565 9.8e-07 -0.00067756)
(0.00104555 2e-06 -4.244e-05 -0.00038586 9.7e-07 -0.00065969)
(0.00101437 3.39e-06 -4.087e-05 -0.00037405 9.2e-07 -0.00064031)
(0.00097497 2.97e-06 -3.871e-05 -0.00035824 9e-07 -0.00061674)
(0.00093542 -1e-08 -3.669e-05 -0.0003423 8.5e-07 -0.00059312)
(0.00089568 -5.06e-06 -3.447e-05 -0.00032634 8.6e-07 -0.00056934)
(0.00086109 -1.126e-05 -3.271e-05 -0.00031295 8.7e-07 -0.00054814)
(0.00082612 -1.878e-05 -3.086e-05 -0.00029957 7.4e-07 -0.00052655)
(0.0007973 -2.615e-05 -2.925e-05 -0.00028885 5.9e-07 -0.00050846)
(0.0007708 -3.379e-05 -2.771e-05 -0.00027906 4.7e-07 -0.00049174)
(0.00074637 -4.104e-05 -2.628e-05 -0.00026996 4.5e-07 -0.00047641)
(0.0007244 -4.8e-05 -2.514e-05 -0.00026193 5.5e-07 -0.00046247)
(0.0007028 -5.489e-05 -2.406e-05 -0.00025423 7e-07 -0.00044857)
(0.00068391 -6.095e-05 -2.322e-05 -0.0002479 8.8e-07 -0.00043601)
(0.00066541 -6.618e-05 -2.254e-05 -0.000242 1.19e-06 -0.0004234)
(0.00064866 -6.95e-05 -2.214e-05 -0.00023701 1.57e-06 -0.00041165)
(0.00063053 -7.122e-05 -2.188e-05 -0.00023174 2.13e-06 -0.00039879)
(0.00061006 -7.101e-05 -2.173e-05 -0.00022584 2.87e-06 -0.00038422)
(0.00058716 -6.88e-05 -2.171e-05 -0.00021929 3.69e-06 -0.00036787)
(0.0005597 -6.428e-05 -2.171e-05 -0.00021125 4.56e-06 -0.00034845)
(0.00052845 -5.773e-05 -2.158e-05 -0.00020176 5.32e-06 -0.00032669)
(0.00049173 -4.942e-05 -2.113e-05 -0.00018997 5.96e-06 -0.00030176)
(0.00044844 -3.979e-05 -2.017e-05 -0.00017523 6.45e-06 -0.00027321)
(0.00040513 -3.06e-05 -1.89e-05 -0.00016004 6.67e-06 -0.00024509)
(0.00035315 -2.106e-05 -1.681e-05 -0.0001408 6.71e-06 -0.00021235)
(0.00030078 -1.293e-05 -1.428e-05 -0.00012088 6.53e-06 -0.0001799)
(0.00024866 -6.55e-06 -1.138e-05 -0.00010061 6.15e-06 -0.00014805)
(0.00019952 -2.18e-06 -8.42e-06 -8.127e-05 5.64e-06 -0.00011825)
(0.00015311 4.1e-07 -5.49e-06 -6.282e-05 4.97e-06 -9.029e-05)
(0.00011935 1.23e-06 -3.62e-06 -4.968e-05 4.36e-06 -6.968e-05)
(8.707e-05 1.32e-06 -1.91e-06 -3.694e-05 3.53e-06 -5.013e-05)
(6.239e-05 9.7e-07 -9e-07 -2.725e-05 2.68e-06 -3.514e-05)
(4.545e-05 5.8e-07 -4.6e-07 -2.062e-05 1.91e-06 -2.483e-05)
(3.208e-05 3.1e-07 -2.5e-07 -1.514e-05 1.17e-06 -1.694e-05)
(2.228e-05 1.6e-07 -1.6e-07 -1.087e-05 6.1e-07 -1.14e-05)
(1.511e-05 8e-08 -1.1e-07 -7.55e-06 2.8e-07 -7.55e-06)
(7.4e-06 2e-08 -5e-08 -3.74e-06 6e-08 -3.66e-06)
(1.31e-06 0 -1e-08 -6.7e-07 0 -6.5e-07)
(0.00214117 -2.27e-06 -0.00012808 -0.00082891 -1e-07 -0.00131226)
(0.00214899 -6.36e-06 -0.00012798 -0.00083329 4.4e-07 -0.0013157)
(0.0021573 -8.17e-06 -0.00012744 -0.00083937 8.3e-07 -0.00131793)
(0.00215863 -7.38e-06 -0.00012616 -0.00084258 1.07e-06 -0.00131605)
(0.00215602 -5.39e-06 -0.00012495 -0.00084417 1.26e-06 -0.00131184)
(0.00214562 -1.5e-07 -0.00012354 -0.00084175 1.28e-06 -0.00130387)
(0.00211382 5.55e-06 -0.00012115 -0.00082857 1.32e-06 -0.00128525)
(0.00207405 5.96e-06 -0.00011776 -0.00081175 1.52e-06 -0.0012623)
(0.00203849 2.81e-06 -0.00011465 -0.00079816 1.8e-06 -0.00124032)
(0.00200553 8.4e-07 -0.0001123 -0.00078641 1.89e-06 -0.00121913)
(0.00196826 6.4e-07 -0.00010997 -0.00077304 2.14e-06 -0.00119522)
(0.00192471 2.32e-06 -0.00010727 -0.00075671 2.05e-06 -0.001168)
(0.00186944 4.17e-06 -0.00010339 -0.00073453 1.84e-06 -0.00113491)
(0.00180587 2.85e-06 -9.873e-05 -0.00070796 1.75e-06 -0.00109791)
(0.00173735 -2.74e-06 -9.389e-05 -0.00067907 1.59e-06 -0.00105828)
(0.00167143 -1.14e-05 -8.896e-05 -0.0006515 1.52e-06 -0.00101993)
(0.00161063 -2.224e-05 -8.458e-05 -0.00062663 1.51e-06 -0.000984)
(0.00155491 -3.447e-05 -8.063e-05 -0.00060428 1.24e-06 -0.00095063)
(0.00150403 -4.793e-05 -7.663e-05 -0.00058425 8.9e-07 -0.00091978)
(0.00146109 -6.013e-05 -7.335e-05 -0.0005676 6.7e-07 -0.0008935)
(0.00141841 -7.274e-05 -7.001e-05 -0.00055101 7.3e-07 -0.0008674)
(0.00137464 -8.518e-05 -6.67e-05 -0.00053394 9.9e-07 -0.0008407)
(0.00133743 -9.612e-05 -6.423e-05 -0.00051994 1.4e-06 -0.00081749)
(0.00130363 -0.00010581 -6.225e-05 -0.00050786 1.96e-06 -0.00079577)
(0.00126947 -0.00011398 -6.063e-05 -0.00049618 2.84e-06 -0.00077329)
(0.00123637 -0.00011905 -5.953e-05 -0.00048534 3.92e-06 -0.00075102)
(0.00119928 -0.00012106 -5.863e-05 -0.00047332 5.39e-06 -0.00072596)
(0.00115819 -0.0001198 -5.792e-05 -0.00046004 7.17e-06 -0.00069815)
(0.00111074 -0.00011516 -5.731e-05 -0.00044455 9.15e-06 -0.00066619)
(0.00105725 -0.00010723 -5.669e-05 -0.00042681 1.108e-05 -0.00063044)
(0.00099459 -9.602e-05 -5.56e-05 -0.0004053 1.285e-05 -0.00058929)
(0.00092446 -8.247e-05 -5.38e-05 -0.00038034 1.425e-05 -0.00054412)
(0.00084329 -6.707e-05 -5.084e-05 -0.0003502 1.527e-05 -0.00049309)
(0.00075547 -5.146e-05 -4.673e-05 -0.00031649 1.576e-05 -0.00043898)
(0.00066182 -3.66e-05 -4.141e-05 -0.00027947 1.574e-05 -0.00038235)
(0.00056883 -2.39e-05 -3.537e-05 -0.00024196 1.528e-05 -0.00032686)
(0.00046543 -1.274e-05 -2.75e-05 -0.00019913 1.427e-05 -0.00026631)
(0.00037841 -5.6e-06 -2.076e-05 -0.000163 1.309e-05 -0.00021541)
(0.00029983 -1.22e-06 -1.462e-05 -0.00013023 1.17e-05 -0.00016961)
(0.00022143 1.24e-06 -8.46e-06 -9.71e-05 9.82e-06 -0.00012433)
(0.00016361 1.71e-06 -4.71e-06 -7.293e-05 8.02e-06 -9.069e-05)
(0.00011954 1.38e-06 -2.5e-06 -5.454e-05 6.25e-06 -6.5e-05)
(8.438e-05 8.8e-07 -1.25e-06 -3.967e-05 4.45e-06 -4.472e-05)
(5.743e-05 4.8e-07 -6.8e-07 -2.789e-05 2.79e-06 -2.955e-05)
(3.945e-05 2.5e-07 -4.5e-07 -1.973e-05 1.63e-06 -1.972e-05)
(2.231e-05 1e-07 -2.5e-07 -1.142e-05 6e-07 -1.089e-05)
(1.06e-05 3e-08 -1.2e-07 -5.5e-06 1.7e-07 -5.1e-06)
(1.63e-06 0 -2e-08 -8.5e-07 1e-08 -7.8e-07)
(0.00307641 -3.07e-06 -0.00022913 -0.00122674 -1e-07 -0.00184967)
(0.00308754 -8.4e-06 -0.0002289 -0.00123302 7e-07 -0.00185452)
(0.00310044 -1.175e-05 -0.00022799 -0.00124196 1.48e-06 -0.00185849)
(0.00310724 -1.117e-05 -0.0002261 -0.00124871 1.93e-06 -0.00185853)
(0.00310838 -7.85e-06 -0.00022409 -0.00125295 2.22e-06 -0.00185542)
(0.00309984 -1.68e-06 -0.00022247 -0.00125227 2.41e-06 -0.00184758)
(0.0030598 6.55e-06 -0.00021862 -0.00123579 2.34e-06 -0.00182401)
(0.00300717 6.51e-06 -0.00021266 -0.00121337 2.56e-06 -0.0017938)
(0.00296405 2.67e-06 -0.00020795 -0.00119683 3e-06 -0.00176722)
(0.00292097 3.3e-07 -0.00020439 -0.00118128 3.23e-06 -0.00173968)
(0.00287337 1.13e-06 -0.00020087 -0.00116397 3.52e-06 -0.00170939)
(0.00281662 3.14e-06 -0.00019642 -0.00114227 3.24e-06 -0.00167436)
(0.00274695 4.02e-06 -0.00019021 -0.00111386 2.83e-06 -0.00163309)
(0.00266474 1.1e-06 -0.00018253 -0.001079 2.61e-06 -0.00158574)
(0.00257782 -7.39e-06 -0.0001748 -0.00104197 2.33e-06 -0.00153585)
(0.00249384 -1.937e-05 -0.00016706 -0.00100641 2.14e-06 -0.00148744)
(0.00241263 -3.461e-05 -0.00015958 -0.00097255 2.01e-06 -0.00144008)
(0.00233713 -5.205e-05 -0.00015263 -0.00094162 1.59e-06 -0.00139551)
(0.00227166 -7.019e-05 -0.00014627 -0.00091553 1.08e-06 -0.00135613)
(0.00221081 -8.796e-05 -0.00014028 -0.00089164 7.9e-07 -0.00131917)
(0.00215129 -0.00010449 -0.0001346 -0.00086817 9.2e-07 -0.00128312)
(0.00209295 -0.00011998 -0.00012936 -0.0008453 1.43e-06 -0.00124765)
(0.00203674 -0.00013452 -0.00012463 -0.00082369 2.28e-06 -0.00121305)
(0.00198211 -0.0001475 -0.00012059 -0.00080345 3.66e-06 -0.00117865)
(0.00193052 -0.00015725 -0.00011772 -0.00078524 5.43e-06 -0.00114528)
(0.00187486 -0.00016304 -0.00011539 -0.00076604 7.77e-06 -0.00110882)
(0.00181529 -0.00016423 -0.0001134 -0.00074565 1.053e-05 -0.00106964)
(0.00174903 -0.00016097 -0.00011148 -0.00072287 1.372e-05 -0.00102616)
(0.00167332 -0.0001534 -0.00010948 -0.00069651 1.717e-05 -0.00097681)
(0.00158735 -0.0001417 -0.00010713 -0.00066604 2.057e-05 -0.00092131)
(0.00149205 -0.00012652 -0.00010402 -0.00063143 2.353e-05 -0.00086062)
(0.00138487 -0.00010847 -9.953e-05 -0.00059125 2.591e-05 -0.00079362)
(0.00126478 -8.86e-05 -9.314e-05 -0.00054472 2.754e-05 -0.00072007)
(0.00114019 -6.898e-05 -8.54e-05 -0.00049517 2.825e-05 -0.00064502)
(0.00100252 -4.978e-05 -7.519e-05 -0.00043882 2.814e-05 -0.0005637)
(0.0008633 -3.297e-05 -6.364e-05 -0.00038069 2.72e-05 -0.00048261)
(0.00072209 -1.906e-05 -5.074e-05 -0.00032066 2.552e-05 -0.00040142)
(0.00059117 -9.04e-06 -3.838e-05 -0.00026449 2.334e-05 -0.00032669)
(0.00046823 -2.45e-06 -2.665e-05 -0.00021127 2.068e-05 -0.00025696)
(0.00035796 1.06e-06 -1.665e-05 -0.00016328 1.76e-05 -0.00019467)
(0.00026996 2.14e-06 -9.84e-06 -0.00012506 1.453e-05 -0.00014489)
(0.00019373 2.01e-06 -5.05e-06 -9.162e-05 1.114e-05 -0.00010211)
(0.00013533 1.37e-06 -2.56e-06 -6.573e-05 7.93e-06 -6.96e-05)
(9.274e-05 7.9e-07 -1.47e-06 -4.638e-05 5.19e-06 -4.636e-05)
(5.761e-05 3.8e-07 -8.9e-07 -2.964e-05 2.78e-06 -2.797e-05)
(3.207e-05 1.5e-07 -5.1e-07 -1.693e-05 1.15e-06 -1.514e-05)
(1.391e-05 4e-08 -2.3e-07 -7.47e-06 3.1e-07 -6.44e-06)
(2e-06 0 -3e-08 -1.08e-06 1e-08 -9.2e-07)
(0.00381587 -3.27e-06 -0.00034168 -0.00153838 -1e-08 -0.00227749)
(0.00382927 -9.07e-06 -0.00034133 -0.0015462 9.8e-07 -0.00228307)
(0.00384563 -1.389e-05 -0.00033989 -0.00155729 2.25e-06 -0.00228834)
(0.00386167 -1.351e-05 -0.00033791 -0.00156958 3e-06 -0.00229209)
(0.00386986 -8.99e-06 -0.00033527 -0.00157794 3.36e-06 -0.00229192)
(0.00386588 -1.22e-06 -0.00033372 -0.00158023 3.79e-06 -0.00228565)
(0.00382352 8.48e-06 -0.00032845 -0.00156327 3.54e-06 -0.00226025)
(0.00376743 8.1e-06 -0.00032022 -0.00153973 3.65e-06 -0.00222771)
(0.00372188 3.64e-06 -0.000314 -0.0015226 4.28e-06 -0.00219928)
(0.0036756 1.24e-06 -0.00030975 -0.0015064 4.76e-06 -0.0021692)
(0.00362447 2.7e-06 -0.00030559 -0.00148819 4.94e-06 -0.00213628)
(0.00356278 4.1e-06 -0.00029955 -0.00146481 4.4e-06 -0.00209796)
(0.00348776 2.96e-06 -0.00029115 -0.00143452 3.75e-06 -0.00205324)
(0.00339904 -2.85e-06 -0.00028069 -0.00139721 3.36e-06 -0.00200184)
(0.00330476 -1.452e-05 -0.00027041 -0.00135734 2.91e-06 -0.00194742)
(0.00321237 -3e-05 -0.00026002 -0.00131844 2.53e-06 -0.00189393)
(0.00312271 -4.87e-05 -0.00025003 -0.0012812 2.25e-06 -0.00184151)
(0.00303674 -7.034e-05 -0.00024007 -0.00124615 1.73e-06 -0.0017906)
(0.00296045 -9.262e-05 -0.00023101 -0.00121611 1.16e-06 -0.00174434)
(0.00288969 -0.00011291 -0.00022295 -0.0011887 9e-07 -0.00170099)
(0.00281809 -0.00013129 -0.0002151 -0.00116077 1.23e-06 -0.00165732)
(0.00274382 -0.00014819 -0.00020734 -0.00113181 2.14e-06 -0.00161201)
(0.00267022 -0.00016361 -0.00020016 -0.00110353 3.63e-06 -0.00156669)
(0.00259761 -0.00017679 -0.000194 -0.00107644 6.01e-06 -0.00152117)
(0.00252433 -0.00018631 -0.00018922 -0.00105 9.21e-06 -0.00147433)
(0.00244643 -0.00019088 -0.00018525 -0.00102238 1.306e-05 -0.00142405)
(0.00236087 -0.00018998 -0.00018133 -0.00099212 1.755e-05 -0.00136876)
(0.00226677 -0.00018389 -0.00017717 -0.00095863 2.25e-05 -0.00130814)
(0.00216405 -0.00017332 -0.00017272 -0.00092174 2.756e-05 -0.0012423)
(0.00205122 -0.0001587 -0.00016754 -0.00088067 3.241e-05 -0.00117055)
(0.00192729 -0.00014064 -0.00016096 -0.00083463 3.669e-05 -0.00109266)
(0.0017929 -0.00012012 -0.00015275 -0.00078337 4.001e-05 -0.00100953)
(0.00164675 -9.814e-05 -0.00014221 -0.00072602 4.223e-05 -0.00092073)
(0.00148984 -7.601e-05 -0.00012914 -0.00066273 4.323e-05 -0.00082712)
(0.00132536 -5.503e-05 -0.00011404 -0.00059466 4.297e-05 -0.0007307)
(0.0011552 -3.63e-05 -9.674e-05 -0.00052271 4.156e-05 -0.00063249)
(0.0009839 -2.076e-05 -7.807e-05 -0.00044896 3.91e-05 -0.00053494)
(0.00081723 -9.03e-06 -5.94e-05 -0.00037619 3.577e-05 -0.00044104)
(0.00065987 -1.23e-06 -4.189e-05 -0.00030677 3.171e-05 -0.00035311)
(0.00051828 2.96e-06 -2.726e-05 -0.00024388 2.718e-05 -0.0002744)
(0.00039427 4.35e-06 -1.612e-05 -0.00018844 2.229e-05 -0.00020584)
(0.0002903 3.99e-06 -8.82e-06 -0.00014157 1.729e-05 -0.00014873)
(0.00020476 2.84e-06 -4.64e-06 -0.0001024 1.24e-05 -0.00010236)
(0.00013588 1.6e-06 -2.64e-06 -6.99e-05 7.92e-06 -6.598e-05)
(8.5e-05 8e-07 -1.68e-06 -4.503e-05 4.43e-06 -3.997e-05)
(4.588e-05 3.1e-07 -1e-06 -2.504e-05 1.9e-06 -2.084e-05)
(1.834e-05 7e-08 -4.2e-07 -1.025e-05 5e-07 -8.09e-06)
(2.49e-06 0 -6e-08 -1.42e-06 2e-08 -1.07e-06)
(0.00427404 -2.85e-06 -0.00045024 -0.00172145 2.2e-07 -0.00255259)
(0.004288 -8.42e-06 -0.00044967 -0.00173008 1.31e-06 -0.00255792)
(0.00430646 -1.42e-05 -0.0004476 -0.00174262 3.1e-06 -0.00256385)
(0.00433213 -1.393e-05 -0.00044606 -0.00176051 4.26e-06 -0.00257162)
(0.00434936 -7.94e-06 -0.00044339 -0.00177403 4.59e-06 -0.00257533)
(0.00435222 1.21e-06 -0.00044224 -0.00178031 5.26e-06 -0.0025719)
(0.00431243 1.084e-05 -0.00043588 -0.00176509 4.8e-06 -0.00254734)
(0.0042603 1.001e-05 -0.00042575 -0.00174396 4.73e-06 -0.00251634)
(0.00421849 5.39e-06 -0.00041863 -0.00172924 5.54e-06 -0.00248925)
(0.00417512 3.3e-06 -0.00041433 -0.00171514 6.32e-06 -0.00245998)
(0.00412656 4.71e-06 -0.00041015 -0.00169869 6.19e-06 -0.00242787)
(0.00406744 4.65e-06 -0.00040313 -0.00167704 5.36e-06 -0.0023904)
(0.00399623 4.2e-07 -0.00039318 -0.00164914 4.5e-06 -0.00234709)
(0.00391313 -9.23e-06 -0.00038077 -0.00161532 3.94e-06 -0.00229782)
(0.00382224 -2.397e-05 -0.00036871 -0.0015779 3.3e-06 -0.00224434)
(0.00373112 -4.215e-05 -0.00035661 -0.00154032 2.74e-06 -0.0021908)
(0.00364077 -6.39e-05 -0.00034436 -0.00150362 2.24e-06 -0.00213714)
(0.00355228 -8.781e-05 -0.00033212 -0.00146831 1.75e-06 -0.00208397)
(0.00347149 -0.00011147 -0.00032115 -0.00143734 1.34e-06 -0.00203415)
(0.00339323 -0.00013218 -0.00031115 -0.00140783 1.27e-06 -0.00198539)
(0.00331053 -0.0001499 -0.0003011 -0.00137618 1.96e-06 -0.00193435)
(0.00322251 -0.00016559 -0.00029098 -0.00134229 3.4e-06 -0.00188022)
(0.00313234 -0.00017919 -0.0002812 -0.00130788 5.74e-06 -0.00182446)
(0.0030412 -0.00018997 -0.00027251 -0.00127379 9.36e-06 -0.00176741)
(0.00294602 -0.00019652 -0.00026516 -0.00123899 1.429e-05 -0.00170702)
(0.00284586 -0.00019828 -0.0002587 -0.00120287 1.998e-05 -0.00164299)
(0.00273787 -0.0001946 -0.00025199 -0.00116399 2.626e-05 -0.00157388)
(0.00262247 -0.00018591 -0.00024473 -0.00112238 3.287e-05 -0.00150009)
(0.00249888 -0.00017284 -0.00023652 -0.00107762 3.953e-05 -0.00142127)
(0.00236785 -0.00015624 -0.0002272 -0.0010298 4.578e-05 -0.00133805)
(0.00222933 -0.00013689 -0.00021665 -0.00097845 5.11e-05 -0.00125089)
(0.00208133 -0.00011541 -0.00020355 -0.00092244 5.532e-05 -0.00115888)
(0.00192398 -9.289e-05 -0.00018857 -0.00086114 5.801e-05 -0.00106284)
(0.00175713 -7.036e-05 -0.00017075 -0.00079437 5.918e-05 -0.00096275)
(0.00158223 -4.898e-05 -0.00015004 -0.00072257 5.874e-05 -0.00085965)
(0.00140107 -2.987e-05 -0.00012752 -0.00064624 5.681e-05 -0.00075484)
(0.00121645 -1.391e-05 -0.00010411 -0.00056663 5.362e-05 -0.00064982)
(0.00103291 -1.85e-06 -7.948e-05 -0.00048622 4.903e-05 -0.00054669)
(0.00085607 6.08e-06 -5.728e-05 -0.00040756 4.37e-05 -0.00044851)
(0.00068999 1.002e-05 -3.79e-05 -0.00033287 3.754e-05 -0.00035713)
(0.00053932 1.07e-05 -2.296e-05 -0.0002644 3.088e-05 -0.00027492)
(0.00040458 9.02e-06 -1.269e-05 -0.00020233 2.388e-05 -0.00020225)
(0.00029136 6.53e-06 -6.93e-06 -0.00014931 1.724e-05 -0.00014205)
(0.00019611 3.87e-06 -4.16e-06 -0.00010333 1.112e-05 -9.278e-05)
(0.00012033 1.89e-06 -2.75e-06 -6.536e-05 6.18e-06 -5.497e-05)
(6.328e-05 7e-07 -1.69e-06 -3.557e-05 2.65e-06 -2.772e-05)
(2.484e-05 1.7e-07 -7.4e-07 -1.443e-05 7.2e-07 -1.042e-05)
(3.29e-06 1e-08 -1e-07 -1.98e-06 4e-08 -1.31e-06)
(0.00448926 -2.01e-06 -0.00054661 -0.00179415 5.8e-07 -0.00269512)
(0.00450239 -7.06e-06 -0.00054561 -0.00180284 1.75e-06 -0.00269955)
(0.00452256 -1.313e-05 -0.00054299 -0.00181672 4.05e-06 -0.00270584)
(0.00455639 -1.287e-05 -0.00054234 -0.00183926 5.56e-06 -0.00271712)
(0.00458067 -5.87e-06 -0.00054025 -0.00185692 6e-06 -0.00272375)
(0.00459079 3.94e-06 -0.00053958 -0.00186737 6.69e-06 -0.00272342)
(0.00455816 1.243e-05 -0.00053234 -0.00185598 5.98e-06 -0.00270218)
(0.00451355 1.104e-05 -0.00052115 -0.00183892 5.78e-06 -0.00267463)
(0.00447872 6.6e-06 -0.00051364 -0.00182809 6.81e-06 -0.00265064)
(0.00444123 4.95e-06 -0.0005097 -0.00181729 7.77e-06 -0.00262394)
(0.00440015 5.69e-06 -0.00050597 -0.00180476 7.22e-06 -0.00259539)
(0.00434837 2.88e-06 -0.0004983 -0.00178695 6.13e-06 -0.00256142)
(0.00428673 -4.97e-06 -0.00048738 -0.00176418 5.08e-06 -0.00252255)
(0.00421295 -1.784e-05 -0.00047399 -0.00173556 4.44e-06 -0.00247738)
(0.00413085 -3.502e-05 -0.000461 -0.00170328 3.64e-06 -0.00242757)
(0.00404555 -5.54e-05 -0.0004476 -0.00166937 2.84e-06 -0.00237618)
(0.00395817 -7.867e-05 -0.00043399 -0.00163491 2.2e-06 -0.00232326)
(0.00387145 -0.00010316 -0.00042 -0.00160168 1.83e-06 -0.00226977)
(0.0037877 -0.00012584 -0.00040738 -0.00157076 1.78e-06 -0.00221694)
(0.00370374 -0.000145 -0.00039606 -0.00153984 2.11e-06 -0.0021639)
(0.00360944 -0.00016 -0.00038352 -0.00150442 3.34e-06 -0.00210502)
(0.00351044 -0.00017336 -0.00037142 -0.00146667 5.32e-06 -0.00204378)
(0.00340241 -0.00018253 -0.00035828 -0.00142573 8.85e-06 -0.00197668)
(0.00329611 -0.00018977 -0.00034703 -0.00138597 1.367e-05 -0.00191014)
(0.00318317 -0.00019234 -0.00033653 -0.00134439 2.023e-05 -0.00183878)
(0.00306397 -0.00019049 -0.00032646 -0.00130091 2.779e-05 -0.00176306)
(0.00293929 -0.0001842 -0.00031605 -0.00125568 3.582e-05 -0.00168361)
(0.00280961 -0.00017347 -0.00030472 -0.00120884 4.4e-05 -0.00160077)
(0.00267557 -0.00015892 -0.00029214 -0.00116061 5.201e-05 -0.00151495)
(0.00253786 -0.00014134 -0.00027833 -0.00111107 5.938e-05 -0.00142679)
(0.00239596 -0.00012145 -0.00026296 -0.00105963 6.567e-05 -0.00133634)
(0.00224865 -9.987e-05 -0.00024551 -0.00100529 7.051e-05 -0.00124337)
(0.00209485 -7.742e-05 -0.00022575 -0.00094715 7.363e-05 -0.00114771)
(0.00193515 -5.503e-05 -0.00020332 -0.0008852 7.49e-05 -0.00104995)
(0.0017662 -3.377e-05 -0.00017904 -0.00081723 7.428e-05 -0.00094896)
(0.00159313 -1.463e-05 -0.00015215 -0.00074585 7.182e-05 -0.00084728)
(0.00141161 1.27e-06 -0.00012457 -0.00066847 6.785e-05 -0.00074314)
(0.00123073 1.314e-05 -9.604e-05 -0.00058986 6.221e-05 -0.00064088)
(0.00104659 2.068e-05 -7.016e-05 -0.00050785 5.575e-05 -0.00053874)
(0.00086909 2.351e-05 -4.676e-05 -0.00042765 4.793e-05 -0.00044143)
(0.00070028 2.269e-05 -2.872e-05 -0.00035023 3.964e-05 -0.00035005)
(0.0005424 1.885e-05 -1.612e-05 -0.00027658 3.087e-05 -0.00026582)
(0.00039781 1.348e-05 -8.75e-06 -0.00020766 2.219e-05 -0.00019016)
(0.00027348 8.37e-06 -5.41e-06 -0.00014665 1.444e-05 -0.00012683)
(0.00016627 4.02e-06 -3.81e-06 -9.197e-05 7.95e-06 -7.429e-05)
(8.875e-05 1.67e-06 -2.49e-06 -5.092e-05 3.5e-06 -3.782e-05)
(3.317e-05 3.7e-07 -1.12e-06 -1.981e-05 9.3e-07 -1.337e-05)
(4.17e-06 2e-08 -1.5e-07 -2.61e-06 5e-08 -1.57e-06)
(0.00450962 -9.9e-07 -0.00062743 -0.00178065 9.9e-07 -0.00272897)
(0.00452117 -5.47e-06 -0.00062574 -0.00178882 2.36e-06 -0.00273235)
(0.00454363 -1.111e-05 -0.00062296 -0.00180448 5.09e-06 -0.00273915)
(0.00458315 -1.028e-05 -0.00062341 -0.00183028 7.02e-06 -0.00275288)
(0.00461348 -3.35e-06 -0.00062249 -0.00185155 7.5e-06 -0.00276194)
(0.00462923 5.99e-06 -0.00062235 -0.00186519 8e-06 -0.00276404)
(0.0046034 1.233e-05 -0.0006143 -0.00185728 7.15e-06 -0.00274613)
(0.00456811 1.049e-05 -0.00060272 -0.00184504 6.97e-06 -0.00272307)
(0.0045419 6.25e-06 -0.00059531 -0.00183874 8.1e-06 -0.00270316)
(0.00451315 4.83e-06 -0.00059196 -0.00183252 8.91e-06 -0.00268062)
(0.00447998 4.18e-06 -0.00058876 -0.00182386 8e-06 -0.00265612)
(0.00443723 -1.53e-06 -0.00058098 -0.00181055 6.67e-06 -0.00262668)
(0.0043872 -1.276e-05 -0.00056935 -0.00179382 5.56e-06 -0.00259338)
(0.00432468 -2.828e-05 -0.0005556 -0.00177136 4.89e-06 -0.00255332)
(0.00425169 -4.709e-05 -0.00054221 -0.00174432 3.98e-06 -0.00250738)
(0.00417362 -6.849e-05 -0.0005279 -0.00171494 3.02e-06 -0.00245867)
(0.00409117 -9.178e-05 -0.00051318 -0.00168405 2.32e-06 -0.00240712)
(0.00400633 -0.00011509 -0.00049831 -0.00165277 2.15e-06 -0.00235356)
(0.00392103 -0.000135 -0.00048468 -0.0016224 2.57e-06 -0.00229863)
(0.00382909 -0.00015055 -0.00047115 -0.00158943 3.62e-06 -0.00223966)
(0.0037286 -0.00016337 -0.00045725 -0.00155202 5.25e-06 -0.00217658)
(0.00361406 -0.00017145 -0.0004414 -0.00150879 8.29e-06 -0.00210527)
(0.00349712 -0.00017761 -0.00042613 -0.00146461 1.258e-05 -0.00203251)
(0.00337506 -0.00017933 -0.00041064 -0.00141902 1.898e-05 -0.00195604)
(0.00324988 -0.00017809 -0.00039643 -0.00137279 2.692e-05 -0.00187709)
(0.00311967 -0.00017331 -0.00038233 -0.00132512 3.596e-05 -0.00179455)
(0.00298563 -0.00016491 -0.00036735 -0.00127646 4.553e-05 -0.00170917)
(0.00285028 -0.00015289 -0.00035127 -0.00122793 5.509e-05 -0.00162235)
(0.002715 -0.00013771 -0.00033415 -0.00118009 6.42e-05 -0.00153491)
(0.00258044 -0.00011976 -0.00031558 -0.00113312 7.251e-05 -0.00144733)
(0.00244611 -9.972e-05 -0.00029553 -0.00108644 7.955e-05 -0.00135967)
(0.00231057 -7.812e-05 -0.00027382 -0.00103895 8.491e-05 -0.00127162)
(0.00217317 -5.569e-05 -0.00025012 -0.00098995 8.832e-05 -0.00118322)
(0.00202827 -3.331e-05 -0.00022489 -0.00093613 8.961e-05 -0.00109214)
(0.00188418 -1.18e-05 -0.00019705 -0.00088153 8.874e-05 -0.00100265)
(0.00172834 7.46e-06 -0.00016796 -0.00081929 8.589e-05 -0.00090904)
(0.0015726 2.36e-05 -0.00013721 -0.00075545 8.102e-05 -0.00081715)
(0.00140336 3.53e-05 -0.00010672 -0.00068292 7.462e-05 -0.00072044)
(0.00122724 4.214e-05 -7.778e-05 -0.00060516 6.688e-05 -0.00062208)
(0.00105138 4.351e-05 -5.193e-05 -0.00052586 5.768e-05 -0.00052552)
(0.00087259 4.051e-05 -3.162e-05 -0.00044342 4.787e-05 -0.00042917)
(0.00069505 3.326e-05 -1.721e-05 -0.00035977 3.729e-05 -0.00033528)
(0.00052478 2.438e-05 -9.01e-06 -0.00027767 2.699e-05 -0.00024711)
(0.0003649 1.514e-05 -5.58e-06 -0.00019812 1.749e-05 -0.00016678)
(0.00022581 7.69e-06 -4.25e-06 -0.00012643 9.72e-06 -9.938e-05)
(0.00012206 3.35e-06 -2.94e-06 -7.094e-05 4.31e-06 -5.112e-05)
(4.431e-05 7.2e-07 -1.43e-06 -2.695e-05 1.13e-06 -1.736e-05)
(5.23e-06 3e-08 -2e-07 -3.35e-06 5e-08 -1.88e-06)
(0.00439016 -2.4e-07 -0.00069256 -0.00170795 1.37e-06 -0.00268221)
(0.00439974 -4.15e-06 -0.00069001 -0.00171522 3.2e-06 -0.00268453)
(0.00442489 -8.91e-06 -0.00068753 -0.00173281 6.2e-06 -0.00269208)
(0.00446772 -7.07e-06 -0.00068884 -0.00176053 8.33e-06 -0.00270719)
(0.00450112 -1.06e-06 -0.00068935 -0.00178364 9.1e-06 -0.00271748)
(0.00452182 6.45e-06 -0.00068991 -0.00180009 9.18e-06 -0.00272173)
(0.00450285 1.071e-05 -0.00068156 -0.00179577 8.35e-06 -0.00270709)
(0.00447634 8.28e-06 -0.00066972 -0.00178801 8.22e-06 -0.00268833)
(0.00445792 3.96e-06 -0.00066288 -0.00178564 9.34e-06 -0.00267229)
(0.00443762 2.22e-06 -0.00066038 -0.00178373 9.83e-06 -0.00265389)
(0.00441295 -8e-08 -0.00065738 -0.0017792 8.55e-06 -0.00263375)
(0.00437963 -8.05e-06 -0.00064955 -0.00177048 7.04e-06 -0.00260915)
(0.00433859 -2.166e-05 -0.0006376 -0.00175836 5.99e-06 -0.00258024)
(0.00428672 -3.925e-05 -0.00062384 -0.00174175 5.39e-06 -0.00254497)
(0.00422331 -5.92e-05 -0.00061029 -0.00172046 4.49e-06 -0.00250286)
(0.00415055 -8.018e-05 -0.00059542 -0.00169469 3.5e-06 -0.00245586)
(0.00407164 -0.00010216 -0.00057992 -0.00166657 2.83e-06 -0.00240506)
(0.00398917 -0.00012199 -0.00056416 -0.00163788 2.94e-06 -0.00235129)