/*--------------------------------*- C++ -*----------------------------------*\
| =========                 |                                                 |
| \\      /  F ield         | OpenFOAM: The Open Source CFD Toolbox           |
|  \\    /   O peration     | Version:  2412                                  |
|   \\  /    A nd           | Website:  www.openfoam.com                      |
|    \\/     M anipulation  |                                                 |
\*---------------------------------------------------------------------------*/
FoamFile
{
    version     2.0;
    format      ascii;
    arch        "LSB;label=32;scalar=64";
    class       volScalarField;
    location    "1830";
    object      alpha_A;
}
// * * * * * * * * * * * * * * * * * * * * * * * * * * * * * * * * * * * * * //

dimensions      [0 0 0 0 0 0 0];

internalField   nonuniform List<scalar> 
2304
(
3.35643
3.35643
3.35642
3.35641
3.3564
3.35639
3.35638
3.35637
3.35637
3.35636
3.35636
3.35637
3.35637
3.35638
3.35639
3.3564
3.35641
3.35642
3.35644
3.35645
3.35647
3.35649
3.35651
3.35653
3.35656
3.35659
3.35663
3.35668
3.35673
3.35679
3.35686
3.35694
3.35703
3.35712
3.35723
3.35735
3.35747
3.3576
3.35773
3.35785
3.35796
3.35806
3.35815
3.35822
3.35827
3.35832
3.35835
3.35836
3.29231
3.29219
3.29197
3.29167
3.29132
3.29097
3.29063
3.29033
3.29011
3.28998
3.28995
3.29002
3.29019
3.29044
3.29077
3.29115
3.29158
3.29204
3.29253
3.29304
3.2936
3.29421
3.2949
3.2957
3.29664
3.29776
3.29908
3.30064
3.30244
3.30451
3.30685
3.30951
3.3125
3.31583
3.31949
3.32346
3.32768
3.33204
3.3364
3.3406
3.34447
3.34789
3.3508
3.35319
3.35508
3.35656
3.35779
3.35835
2.81
2.8091
2.80746
2.80525
2.80271
2.80008
2.79759
2.79546
2.79386
2.79294
2.79275
2.79331
2.7946
2.79653
2.799
2.80192
2.80518
2.80872
2.8125
2.81655
2.82091
2.82564
2.83098
2.83714
2.84438
2.85296
2.86315
2.87518
2.88918
2.90523
2.92355
2.94438
2.96791
2.99423
3.02337
3.05519
3.08932
3.12506
3.16137
3.19693
3.23016
3.26001
3.28586
3.3078
3.32715
3.34541
3.35656
3.35832
1.46157
1.45923
1.45497
1.44925
1.44269
1.43589
1.42947
1.42396
1.41981
1.41734
1.41673
1.41801
1.42112
1.42588
1.43204
1.43938
1.44769
1.45682
1.46672
1.47745
1.48908
1.5018
1.51625
1.53303
1.5528
1.5763
1.6043
1.63755
1.67668
1.72215
1.77473
1.83527
1.9045
1.98308
2.07153
2.17009
2.27849
2.39575
2.51994
2.64788
2.77482
2.89695
3.01329
3.12801
3.24266
3.32715
3.35508
3.35827
-0.193681
-0.196428
-0.201418
-0.208097
-0.215768
-0.223729
-0.23131
-0.237921
-0.243085
-0.246466
-0.247875
-0.247264
-0.244706
-0.240364
-0.234458
-0.227199
-0.218763
-0.209243
-0.198628
-0.186792
-0.173709
-0.159084
-0.142111
-0.122084
-0.0982033
-0.0695886
-0.0352639
0.00584233
0.0549166
0.113491
0.1826
0.263279
0.356734
0.464202
0.586898
0.726039
0.88298
1.0595
1.25821
1.48315
1.73947
2.03501
2.38289
2.77817
3.12801
3.3078
3.35319
3.35822
-1.24685
-1.24909
-1.2532
-1.25869
-1.26504
-1.27172
-1.27825
-1.28422
-1.28931
-1.29329
-1.29605
-1.29754
-1.29782
-1.29696
-1.29505
-1.29217
-1.28835
-1.28357
-1.27769
-1.27052
-1.26213
-1.25207
-1.23972
-1.22451
-1.20584
-1.18309
-1.15558
-1.12252
-1.08301
-1.03598
-0.980505
-0.916008
-0.842099
-0.758625
-0.66565
-0.563012
-0.449274
-0.319792
-0.163347
0.0449046
0.355291
0.840059
1.55163
2.38289
3.01329
3.28586
3.3508
3.35815
-1.59299
-1.59299
-1.59299
-1.59299
-1.59299
-1.59299
-1.59299
-1.59299
-1.59299
-1.59299
-1.59299
-1.59299
-1.59299
-1.59299
-1.59299
-1.59299
-1.59299
-1.59299
-1.59299
-1.59299
-1.59299
-1.593
-1.593
-1.593
-1.593
-1.59301
-1.59302
-1.59303
-1.59304
-1.5676
-1.52714
-1.48363
-1.4387
-1.3947
-1.35425
-1.3191
-1.28803
-1.25327
-1.19473
-1.07018
-0.784795
-0.179141
0.840059
2.03501
2.89695
3.26001
3.34789
3.35806
-1.59299
-1.59299
-1.59299
-1.59299
-1.59299
-1.59299
-1.59299
-1.59299
-1.59299
-1.59299
-1.59299
-1.59299
-1.59299
-1.59299
-1.59299
-1.59299
-1.59299
-1.59299
-1.59299
-1.59299
-1.59299
-1.59299
-1.59299
-1.59299
-1.59299
-1.593
-1.593
-1.59301
-1.59303
-1.59305
-1.59309
-1.59313
-1.59319
-1.59325
-1.59331
-1.59334
-1.59334
-1.59332
-1.59329
-1.59332
-1.42384
-0.784794
0.355292
1.73947
2.77482
3.23016
3.34447
3.35796
-1.59298
-1.59298
-1.59298
-1.59298
-1.59298
-1.59298
-1.59298
-1.59298
-1.59299
-1.59299
-1.59299
-1.59299
-1.59299
-1.59299
-1.59299
-1.59299
-1.59299
-1.59299
-1.59299
-1.59299
-1.59299
-1.59299
-1.59299
-1.59299
-1.593
-1.593
-1.59302
-1.59304
-1.59307
-1.59312
-1.59318
-1.59326
-1.59334
-1.59339
-1.59339
-1.59336
-1.5933
-1.59325
-1.5932
-1.59326
-1.59332
-1.07018
0.0449056
1.48315
2.64788
3.19693
3.3406
3.35785
-1.59298
-1.59298
-1.59298
-1.59298
-1.59298
-1.59299
-1.59299
-1.59299
-1.59299
-1.59299
-1.59299
-1.59299
-1.59299
-1.59299
-1.59299
-1.59299
-1.59299
-1.59299
-1.59299
-1.59299
-1.59299
-1.593
-1.593
-1.59301
-1.59304
-1.59307
-1.59313
-1.59322
-1.59333
-1.59345
-1.59357
-1.59365
-1.59366
-1.59359
-1.59347
-1.59335
-1.59325
-1.59319
-1.59317
-1.5932
-1.59329
-1.19473
-0.163346
1.25821
2.51994
3.16137
3.3364
3.35773
-1.59298
-1.59298
-1.59298
-1.59298
-1.59298
-1.59298
-1.59299
-1.59299
-1.59299
-1.59299
-1.59299
-1.59299
-1.59299
-1.59299
-1.59299
-1.59299
-1.59299
-1.59299
-1.59299
-1.59299
-1.593
-1.59301
-1.59303
-1.59307
-1.59314
-1.59324
-1.59338
-1.59356
-1.59376
-1.59394
-1.59404
-1.59402
-1.59388
-1.59367
-1.59346
-1.59331
-1.59323
-1.5932
-1.59319
-1.59325
-1.59332
-1.25327
-0.319791
1.0595
2.39576
3.12506
3.33204
3.3576
-1.59298
-1.59298
-1.59298
-1.59298
-1.59298
-1.59298
-1.59298
-1.59298
-1.59299
-1.59299
-1.59299
-1.59299
-1.59299
-1.59299
-1.59299
-1.59299
-1.59299
-1.59299
-1.593
-1.59301
-1.59303
-1.59306
-1.59312
-1.59322
-1.59337
-1.59358
-1.59383
-1.5941
-1.59432
-1.59442
-1.59435
-1.59413
-1.59383
-1.59355
-1.59335
-1.59324
-1.59321
-1.59323
-1.59325
-1.5933
-1.59334
-1.28803
-0.449273
0.882981
2.27849
3.08932
3.32768
3.35747
-1.59297
-1.59297
-1.59297
-1.59297
-1.59298
-1.59298
-1.59298
-1.59298
-1.59299
-1.59299
-1.59299
-1.59299
-1.59299
-1.59299
-1.59299
-1.59299
-1.59299
-1.593
-1.59301
-1.59304
-1.59309
-1.59318
-1.59333
-1.59354
-1.59381
-1.59414
-1.59447
-1.59472
-1.5948
-1.59467
-1.59436
-1.59398
-1.59363
-1.5934
-1.59327
-1.59322
-1.59324
-1.59331
-1.59335
-1.59336
-1.59334
-1.3191
-0.563011
0.72604
2.17009
3.05519
3.32346
3.35735
-1.59296
-1.59296
-1.59297
-1.59297
-1.59297
-1.59298
-1.59298
-1.59298
-1.59299
-1.59299
-1.59299
-1.59299
-1.59299
-1.59299
-1.59299
-1.59299
-1.593
-1.59302
-1.59307
-1.59314
-1.59326
-1.59345
-1.59373
-1.59409
-1.59449
-1.59489
-1.59514
-1.59517
-1.59494
-1.59455
-1.5941
-1.5937
-1.59343
-1.59329
-1.59324
-1.59327
-1.59335
-1.59346
-1.59347
-1.59339
-1.59331
-1.35425
-0.665649
0.586899
2.07153
3.02337
3.31949
3.35723
-1.59296
-1.59296
-1.59296
-1.59297
-1.59297
-1.59297
-1.59298
-1.59298
-1.59299
-1.59299
-1.59299
-1.59299
-1.59299
-1.59299
-1.593
-1.59301
-1.59304
-1.59309
-1.59319
-1.59335
-1.5936
-1.59396
-1.59443
-1.59495
-1.59539
-1.59562
-1.59556
-1.59523
-1.59471
-1.59416
-1.59372
-1.59345
-1.5933
-1.59326
-1.59329
-1.5934
-1.59355
-1.59367
-1.59359
-1.59339
-1.59325
-1.3947
-0.758624
0.464203
1.98308
2.99423
3.31583
3.35712
-1.59295
-1.59295
-1.59296
-1.59296
-1.59297
-1.59297
-1.59298
-1.59298
-1.59299
-1.59299
-1.59299
-1.59299
-1.59299
-1.593
-1.59301
-1.59305
-1.59312
-1.59324
-1.59345
-1.59376
-1.59424
-1.59483
-1.59541
-1.59587
-1.59606
-1.58503
-1.57815
-1.5785
-1.58767
-1.59373
-1.59344
-1.59328
-1.59325
-1.5933
-1.59343
-1.59363
-1.59383
-1.59388
-1.59366
-1.59334
-1.59319
-1.4387
-0.842098
0.356736
1.9045
2.96791
3.3125
3.35703
-1.59295
-1.59295
-1.59295
-1.59296
-1.59297
-1.59297
-1.59298
-1.59298
-1.59299
-1.59299
-1.59299
-1.59299
-1.593
-1.59301
-1.59306
-1.59314
-1.59329
-1.59355
-1.59397
-1.59454
-1.5952
-1.59584
-1.58124
-1.5607
-1.54424
-1.53407
-1.53177
-1.53644
-1.54693
-1.56301
-1.59102
-1.59323
-1.59328
-1.59345
-1.5937
-1.59398
-1.59413
-1.59402
-1.59365
-1.59326
-1.59313
-1.48363
-0.916007
0.26328
1.83527
2.94438
3.30951
3.35694
-1.59295
-1.59295
-1.59295
-1.59296
-1.59297
-1.59297
-1.59298
-1.59299
-1.59299
-1.59299
-1.59299
-1.593
-1.59301
-1.59306
-1.59316
-1.59334
-1.59367
-1.59416
-1.5948
-1.59553
-1.56972
-1.54418
-1.52175
-1.50499
-1.494
-1.48871
-1.49081
-1.50008
-1.51547
-1.5353
-1.5567
-1.59102
-1.59344
-1.59372
-1.5941
-1.59436
-1.59435
-1.59404
-1.59357
-1.59318
-1.59309
-1.52714
-0.980504
0.182601
1.77473
2.92355
3.30685
3.35686
-1.59295
-1.59295
-1.59295
-1.59296
-1.59297
-1.59298
-1.59298
-1.59299
-1.59299
-1.59299
-1.59299
-1.59301
-1.59306
-1.59317
-1.59339
-1.59377
-1.59432
-1.59071
-1.56214
-1.53334
-1.50695
-1.4844
-1.46452
-1.44987
-1.44222
-1.44189
-1.44916
-1.46344
-1.48353
-1.50836
-1.5353
-1.56301
-1.59373
-1.59416
-1.59455
-1.59467
-1.59442
-1.59394
-1.59345
-1.59312
-1.59305
-1.5676
-1.03598
0.113492
1.72215
2.90523
3.30451
3.35679
-1.59295
-1.59295
-1.59296
-1.59297
-1.59297
-1.59298
-1.59299
-1.59299
-1.59299
-1.59299
-1.59301
-1.59306
-1.59318
-1.59343
-1.59384
-1.58753
-1.55777
-1.52742
-1.49858
-1.47137
-1.44415
-1.4213
-1.40388
-1.39343
-1.39086
-1.39626
-1.40923
-1.42893
-1.45417
-1.48353
-1.51547
-1.54693
-1.58767
-1.59471
-1.59494
-1.5948
-1.59432
-1.59376
-1.59333
-1.59307
-1.59303
-1.59304
-1.08301
0.0549179
1.67669
2.88918
3.30244
3.35673
-1.59295
-1.59296
-1.59296
-1.59297
-1.59298
-1.59299
-1.59299
-1.59299
-1.59299
-1.59301
-1.59305
-1.59319
-1.59345
-1.59047
-1.55862
-1.52655
-1.49547
-1.46439
-1.4319
-1.40211
-1.3759
-1.35576
-1.343
-1.33842
-1.34217
-1.35388
-1.37288
-1.3983
-1.42893
-1.46344
-1.50008
-1.53644
-1.5785
-1.59523
-1.59517
-1.59472
-1.5941
-1.59356
-1.59322
-1.59304
-1.59301
-1.59303
-1.12251
0.00584366
1.63755
2.87518
3.30064
3.35668
-1.59296
-1.59296
-1.59297
-1.59298
-1.59298
-1.59299
-1.59299
-1.59299
-1.593
-1.59305
-1.59319
-1.59345
-1.56872
-1.5331
-1.49896
-1.46428
-1.42727
-1.39144
-1.35767
-1.3286
-1.30594
-1.2911
-1.28477
-1.28706
-1.29767
-1.31604
-1.34142
-1.37288
-1.40923
-1.44916
-1.49081
-1.53177
-1.57815
-1.59556
-1.59514
-1.59447
-1.59383
-1.59338
-1.59313
-1.59302
-1.593
-1.59302
-1.15558
-0.0352625
1.6043
2.86315
3.29908
3.35663
-1.59297
-1.59297
-1.59298
-1.59298
-1.59299
-1.59299
-1.59299
-1.593
-1.59304
-1.59317
-1.59132
-1.5508
-1.51223
-1.47362
-1.43173
-1.3901
-1.34931
-1.31189
-1.27971
-1.2546
-1.23774
-1.2298
-1.23088
-1.24065
-1.25857
-1.28396
-1.31604
-1.35388
-1.39626
-1.44189
-1.48871
-1.53407
-1.58503
-1.59562
-1.59489
-1.59414
-1.59358
-1.59324
-1.59307
-1.593
-1.593
-1.59301
-1.18309
-0.0695871
1.5763
2.85296
3.29776
3.35659
-1.59298
-1.59298
-1.59298
-1.59299
-1.59299
-1.59299
-1.593
-1.59303
-1.59316
-1.58396
-1.53778
-1.49423
-1.44823
-1.40064
-1.35268
-1.30693
-1.26524
-1.22967
-1.20182
-1.18289
-1.17344
-1.17346
-1.1826
-1.20027
-1.22582
-1.25857
-1.29767
-1.34217
-1.39086
-1.44222
-1.494
-1.54424
-1.59606
-1.59539
-1.59449
-1.59381
-1.59337
-1.59314
-1.59304
-1.593
-1.59299
-1.593
-1.20584
-0.0982018
1.5528
2.84438
3.29664
3.35656
-1.59298
-1.59299
-1.59299
-1.59299
-1.59299
-1.593
-1.59303
-1.59314
-1.58076
-1.52935
-1.47979
-1.42583
-1.37091
-1.31659
-1.26501
-1.21846
-1.17887
-1.14793
-1.12671
-1.11564
-1.11465
-1.12326
-1.14085
-1.16675
-1.20027
-1.24065
-1.28706
-1.33842
-1.39343
-1.44987
-1.50499
-1.5607
-1.59587
-1.59495
-1.59409
-1.59354
-1.59322
-1.59307
-1.59301
-1.59299
-1.59299
-1.593
-1.22451
-0.122082
1.53303
2.83714
3.2957
3.35653
-1.59299
-1.59299
-1.59299
-1.59299
-1.593
-1.59302
-1.59313
-1.58052
-1.52375
-1.46775
-1.40686
-1.34413
-1.28257
-1.22448
-1.17223
-1.12798
-1.09339
-1.06945
-1.05651
-1.05436
-1.06245
-1.08005
-1.10642
-1.14085
-1.1826
-1.23088
-1.28477
-1.343
-1.40388
-1.46452
-1.52175
-1.58124
-1.59541
-1.59443
-1.59373
-1.59333
-1.59312
-1.59303
-1.593
-1.59299
-1.59299
-1.593
-1.23972
-0.142109
1.51625
2.83098
3.2949
3.35651
-1.59299
-1.59299
-1.59299
-1.593
-1.59303
-1.59313
-1.58127
-1.5201
-1.45874
-1.39101
-1.32081
-1.25152
-1.18614
-1.12743
-1.07775
-1.03879
-1.01155
-0.996283
-0.992695
-1.00011
-1.01769
-1.0446
-1.08005
-1.12326
-1.17346
-1.2298
-1.2911
-1.35576
-1.4213
-1.4844
-1.54418
-1.59584
-1.59483
-1.59396
-1.59345
-1.59318
-1.59306
-1.59301
-1.593
-1.59299
-1.59299
-1.593
-1.25207
-0.159082
1.5018
2.82564
3.29421
3.35649
-1.59299
-1.59299
-1.593
-1.59304
-1.59313
-1.58003
-1.51662
-1.45171
-1.37819
-1.30087
-1.22385
-1.15072
-1.08485
-1.02891
-0.984793
-0.953523
-0.935349
-0.929881
-0.936338
-0.953758
-0.981176
-1.01769
-1.06245
-1.11465
-1.17344
-1.23774
-1.30594
-1.37591
-1.44415
-1.50695
-1.56972
-1.5952
-1.59424
-1.5936
-1.59326
-1.59309
-1.59303
-1.593
-1.59299
-1.59299
-1.59299
-1.59299
-1.26212
-0.173707
1.48909
2.82091
3.2936
3.35647
-1.59301
-1.59302
-1.59307
-1.59317
-1.57273
-1.51071
-1.44471
-1.36718
-1.28376
-1.19941
-1.11849
-1.04499
-0.982109
-0.93203
-0.89596
-0.874185
-0.866292
-0.871396
-0.888406
-0.916207
-0.953758
-1.00011
-1.05436
-1.11564
-1.18289
-1.2546
-1.3286
-1.40212
-1.47137
-1.53334
-1.59553
-1.59454
-1.59376
-1.59335
-1.59314
-1.59304
-1.59301
-1.59299
-1.59299
-1.59299
-1.59299
-1.59299
-1.27052
-0.18679
1.47746
2.81655
3.29304
3.35645
-1.59311
-1.59316
-1.59326
-1.55499
-1.49923
-1.43495
-1.35582
-1.268
-1.17736
-1.08906
-1.00787
-0.937616
-0.880942
-0.839343
-0.813275
-0.802351
-0.805634
-0.821906
-0.849898
-0.888407
-0.936338
-0.992696
-1.05651
-1.12671
-1.20182
-1.27971
-1.35767
-1.43191
-1.49858
-1.56214
-1.5948
-1.59397
-1.59345
-1.59319
-1.59307
-1.59301
-1.593
-1.59299
-1.59299
-1.59299
-1.59299
-1.59299
-1.27769
-0.198627
1.46672
2.8125
3.29253
3.35644
-1.57744
-1.55926
-1.52509
-1.47941
-1.41896
-1.34092
-1.25102
-1.15577
-1.06115
-0.972746
-0.895113
-0.831509
-0.783867
-0.752915
-0.738405
-0.739399
-0.75459
-0.782551
-0.821907
-0.871396
-0.929881
-0.996284
-1.06945
-1.14793
-1.22967
-1.31189
-1.39144
-1.46439
-1.52742
-1.59072
-1.59416
-1.59355
-1.59324
-1.59309
-1.59302
-1.593
-1.59299
-1.59299
-1.59299
-1.59299
-1.59299
-1.59299
-1.28357
-0.209241
1.45682
2.80872
3.29204
3.35642
-1.50207
-1.48425
-1.44923
-1.39285
-1.31826
-1.22897
-1.13144
-1.03223
-0.937751
-0.853338
-0.782961
-0.729129
-0.692982
-0.674512
-0.672874
-0.686712
-0.714468
-0.75459
-0.805634
-0.866293
-0.935349
-1.01155
-1.0934
-1.17887
-1.26524
-1.34931
-1.42727
-1.49547
-1.55777
-1.59432
-1.59367
-1.59329
-1.59312
-1.59304
-1.593
-1.59299
-1.59299
-1.59299
-1.59299
-1.59299
-1.59299
-1.59299
-1.28835
-0.218762
1.44769
2.80518
3.29158
3.35641
-1.42174
-1.39736
-1.35055
-1.28201
-1.19641
-1.09948
-0.998144
-0.899489
-0.809645
-0.733342
-0.673761
-0.632577
-0.610148
-0.605812
-0.618241
-0.64578
-0.686712
-0.7394
-0.802351
-0.874186
-0.953523
-1.03879
-1.12798
-1.21846
-1.30693
-1.3901
-1.46428
-1.52656
-1.58754
-1.59377
-1.59334
-1.59314
-1.59305
-1.59301
-1.59299
-1.59299
-1.59299
-1.59299
-1.59299
-1.59299
-1.59299
-1.59299
-1.29217
-0.227197
1.43938
2.80192
3.29115
3.3564
-1.30957
-1.27946
-1.22318
-1.1455
-1.05284
-0.952615
-0.852536
-0.759491
-0.67898
-0.614905
-0.569561
-0.543777
-0.537181
-0.548552
-0.576192
-0.618241
-0.672874
-0.738405
-0.813275
-0.895961
-0.984794
-1.07775
-1.17223
-1.26501
-1.35268
-1.43173
-1.49896
-1.55863
-1.59384
-1.59339
-1.59316
-1.59306
-1.59301
-1.593
-1.59299
-1.59299
-1.59299
-1.59299
-1.59299
-1.59299
-1.59299
-1.59299
-1.29504
-0.234457
1.43204
2.799
3.29077
3.35639
-1.16161
-1.12718
-1.06451
-0.981425
-0.886659
-0.788883
-0.695855
-0.613881
-0.547596
-0.499949
-0.472304
-0.464664
-0.475994
-0.504612
-0.548552
-0.605812
-0.674513
-0.752915
-0.839344
-0.932031
-1.02891
-1.12743
-1.22449
-1.31659
-1.40065
-1.47363
-1.5331
-1.59047
-1.59343
-1.59317
-1.59306
-1.59301
-1.593
-1.59299
-1.59299
-1.59299
-1.59299
-1.59299
-1.59299
-1.59299
-1.59299
-1.59299
-1.29695
-0.240362
1.42588
2.79653
3.29044
3.35638
-0.973048
-0.936151
-0.870858
-0.787821
-0.697388
-0.608711
-0.529134
-0.464099
-0.41721
-0.390377
-0.384008
-0.397306
-0.428649
-0.475994
-0.537181
-0.610148
-0.692982
-0.783868
-0.880943
-0.98211
-1.08485
-1.18614
-1.28257
-1.37091
-1.44823
-1.51224
-1.56873
-1.59345
-1.59318
-1.59306
-1.59301
-1.593
-1.59299
-1.59299
-1.59299
-1.59299
-1.59299
-1.59299
-1.59299
-1.59299
-1.59299
-1.59299
-1.29782
-0.244705
1.42112
2.7946
3.29019
3.35637
-0.738714
-0.702303
-0.639732
-0.563496
-0.484785
-0.412587
-0.353431
-0.311653
-0.289679
-0.288287
-0.306897
-0.343943
-0.397306
-0.464664
-0.543777
-0.632577
-0.72913
-0.83151
-0.937617
-1.04499
-1.15073
-1.25152
-1.34413
-1.42583
-1.49423
-1.5508
-1.59345
-1.59319
-1.59306
-1.59301
-1.593
-1.59299
-1.59299
-1.59299
-1.59299
-1.59299
-1.59299
-1.59299
-1.59299
-1.59299
-1.59299
-1.59299
-1.29754
-0.247263
1.41802
2.79331
3.29002
3.35637
-0.45568
-0.423364
-0.369776
-0.308014
-0.249178
-0.201473
-0.170246
-0.158486
-0.167265
-0.196112
-0.243417
-0.306897
-0.384008
-0.472304
-0.569561
-0.673761
-0.782961
-0.895113
-1.00787
-1.11849
-1.22386
-1.32081
-1.40686
-1.47979
-1.53778
-1.59132
-1.59319
-1.59305
-1.59301
-1.59299
-1.59299
-1.59299
-1.59299
-1.59299
-1.59299
-1.59299
-1.59299
-1.59299
-1.59299
-1.59299
-1.59299
-1.59299
-1.29605
-0.247874
1.41673
2.79275
3.28995
3.35636
-0.123143
-0.099023
-0.0613438
-0.0223765
0.00787053
0.0225852
0.0179752
-0.00732938
-0.0528223
-0.116638
-0.196112
-0.288287
-0.390377
-0.499949
-0.614906
-0.733342
-0.853339
-0.972747
-1.08906
-1.19941
-1.30087
-1.39101
-1.46775
-1.52935
-1.58396
-1.59317
-1.59305
-1.59301
-1.59299
-1.59299
-1.59299
-1.59299
-1.59299
-1.59299
-1.59299
-1.59299
-1.59299
-1.59299
-1.59299
-1.59299
-1.59299
-1.59299
-1.29329
-0.246466
1.41734
2.79294
3.28998
3.35636
0.256543
0.268115
0.28262
0.29014
0.282809
0.25584
0.207405
0.13808
0.0502076
-0.0528221
-0.167265
-0.289678
-0.41721
-0.547596
-0.67898
-0.809645
-0.937751
-1.06115
-1.17736
-1.28376
-1.37819
-1.45874
-1.52376
-1.58076
-1.59316
-1.59304
-1.593
-1.59299
-1.59299
-1.59299
-1.59299
-1.59299
-1.59299
-1.59299
-1.59299
-1.59299
-1.59299
-1.59299
-1.59299
-1.59299
-1.59299
-1.59299
-1.28931
-0.243085
1.41982
2.79386
3.29011
3.35637
0.677122
0.671774
0.655842
0.623303
0.569539
0.492469
0.392695
0.273095
0.13808
-0.00732889
-0.158485
-0.311653
-0.464098
-0.61388
-0.75949
-0.899488
-1.03223
-1.15578
-1.268
-1.36719
-1.45171
-1.5201
-1.58052
-1.59314
-1.59303
-1.593
-1.59299
-1.59299
-1.59299
-1.59299
-1.59299
-1.59298
-1.59298
-1.59298
-1.59298
-1.59298
-1.59298
-1.59299
-1.59299
-1.59298
-1.59299
-1.59299
-1.28422
-0.23792
1.42396
2.79546
3.29033
3.35637
1.12806
1.10165
1.04843
0.967754
0.859407
0.724765
0.567361
0.392695
0.207405
0.0179759
-0.170245
-0.353431
-0.529134
-0.695855
-0.852536
-0.998144
-1.13144
-1.25102
-1.35582
-1.44471
-1.51662
-1.58127
-1.59313
-1.59303
-1.593
-1.59299
-1.59299
-1.59299
-1.59299
-1.59298
-1.59298
-1.59298
-1.59298
-1.59298
-1.59298
-1.59298
-1.59298
-1.59299
-1.59299
-1.59298
-1.59299
-1.59299
-1.27825
-0.231309
1.42947
2.79759
3.29063
3.35638
1.59455
1.54352
1.44717
1.31153
1.14194
0.944037
0.724766
0.49247
0.255841
0.0225862
-0.201472
-0.412586
-0.60871
-0.788882
-0.952614
-1.09948
-1.22897
-1.34092
-1.43495
-1.51071
-1.58003
-1.59313
-1.59302
-1.593
-1.59299
-1.59299
-1.59299
-1.59299
-1.59298
-1.59298
-1.59297
-1.59297
-1.59297
-1.59297
-1.59298
-1.59298
-1.59298
-1.59298
-1.59299
-1.59298
-1.59299
-1.59299
-1.27172
-0.223728
1.43589
2.80008
3.29097
3.35639
2.05746
1.9795
1.83612
1.64102
1.40607
1.14194
0.859408
0.56954
0.28281
0.00787187
-0.249177
-0.484783
-0.697387
-0.886659
-1.05284
-1.19641
-1.31826
-1.41896
-1.49923
-1.57273
-1.59313
-1.59303
-1.593
-1.59299
-1.59299
-1.59299
-1.59298
-1.59298
-1.59297
-1.59297
-1.59297
-1.59297
-1.59297
-1.59297
-1.59297
-1.59298
-1.59298
-1.59298
-1.59298
-1.59298
-1.59299
-1.59299
-1.26504
-0.215768
1.44269
2.80271
3.29132
3.3564
2.49281
2.38766
2.1967
1.94151
1.64103
1.31153
0.967755
0.623305
0.290142
-0.0223749
-0.308012
-0.563495
-0.78782
-0.981424
-1.1455
-1.28201
-1.39285
-1.47941
-1.55499
-1.59317
-1.59304
-1.593
-1.59299
-1.59299
-1.59299
-1.59298
-1.59298
-1.59297
-1.59297
-1.59296
-1.59296
-1.59296
-1.59296
-1.59297
-1.59297
-1.59297
-1.59298
-1.59298
-1.59298
-1.59298
-1.59299
-1.59299
-1.25869
-0.208096
1.44925
2.80525
3.29167
3.35641
2.87108
2.74139
2.50706
2.1967
1.83612
1.44717
1.04843
0.655844
0.282622
-0.0613421
-0.369774
-0.639731
-0.870857
-1.0645
-1.22318
-1.35055
-1.44923
-1.52509
-1.59326
-1.59307
-1.593
-1.59299
-1.59299
-1.59299
-1.59298
-1.59298
-1.59297
-1.59296
-1.59296
-1.59295
-1.59295
-1.59295
-1.59296
-1.59296
-1.59297
-1.59297
-1.59298
-1.59298
-1.59298
-1.59298
-1.59299
-1.59299
-1.2532
-0.201418
1.45497
2.80746
3.29197
3.35642
3.15784
3.0094
2.74139
2.38766
1.9795
1.54353
1.10165
0.671776
0.268118
-0.0990211
-0.423363
-0.702302
-0.93615
-1.12717
-1.27946
-1.39736
-1.48425
-1.55926
-1.59316
-1.59302
-1.59299
-1.59299
-1.59299
-1.59299
-1.59298
-1.59297
-1.59296
-1.59296
-1.59295
-1.59295
-1.59295
-1.59295
-1.59295
-1.59296
-1.59296
-1.59297
-1.59298
-1.59298
-1.59298
-1.59298
-1.59299
-1.59299
-1.24909
-0.196428
1.45923
2.8091
3.29219
3.35643
3.31654
3.15784
2.87108
2.49281
2.05746
1.59455
1.12806
0.677124
0.256545
-0.123141
-0.455678
-0.738712
-0.973047
-1.16161
-1.30957
-1.42174
-1.50207
-1.57744
-1.59311
-1.59301
-1.59299
-1.59299
-1.59299
-1.59298
-1.59298
-1.59297
-1.59296
-1.59295
-1.59295
-1.59295
-1.59295
-1.59295
-1.59295
-1.59296
-1.59296
-1.59297
-1.59298
-1.59298
-1.59298
-1.59298
-1.59299
-1.59299
-1.24685
-0.193681
1.46157
2.81
3.29231
3.35643
)
;

boundaryField
{
    inlet
    {
        type            cyclic;
    }
    outlet
    {
        type            cyclic;
    }
    walls
    {
        type            calculated;
        value           nonuniform List<scalar> 
96
(
3.35836
3.35834
3.35831
3.35827
3.35821
3.35814
3.35805
3.35795
3.35784
3.35772
3.35759
3.35746
3.35733
3.35722
3.35711
3.35701
3.35692
3.35684
3.35677
3.35671
3.35666
3.35661
3.35657
3.35654
3.35651
3.35649
3.35647
3.35645
3.35643
3.35642
3.3564
3.35639
3.35638
3.35637
3.35636
3.35635
3.35634
3.35634
3.35634
3.35635
3.35635
3.35636
3.35637
3.35638
3.35639
3.3564
3.35641
3.35641
3.35641
3.35641
3.3564
3.35639
3.35638
3.35637
3.35636
3.35635
3.35635
3.35634
3.35634
3.35634
3.35635
3.35636
3.35637
3.35638
3.35639
3.3564
3.35642
3.35643
3.35645
3.35647
3.35649
3.35651
3.35654
3.35657
3.35661
3.35666
3.35671
3.35677
3.35684
3.35692
3.35701
3.35711
3.35722
3.35733
3.35746
3.35759
3.35772
3.35784
3.35795
3.35805
3.35814
3.35821
3.35827
3.35831
3.35834
3.35836
)
;
    }
    symPlanes
    {
        type            symmetry;
    }
}


// ************************************************************************* //
