/*--------------------------------*- C++ -*----------------------------------*\
| =========                 |                                                 |
| \\      /  F ield         | OpenFOAM: The Open Source CFD Toolbox           |
|  \\    /   O peration     | Version:  2412                                  |
|   \\  /    A nd           | Website:  www.openfoam.com                      |
|    \\/     M anipulation  |                                                 |
\*---------------------------------------------------------------------------*/
FoamFile
{
    version     2.0;
    format      ascii;
    arch        "LSB;label=32;scalar=64";
    class       volSymmTensorField;
    location    "1830";
    object      bijDelta;
}
// * * * * * * * * * * * * * * * * * * * * * * * * * * * * * * * * * * * * * //

dimensions      [0 0 0 0 0 0 0];

internalField   nonuniform List<symmTensor> 
2304
(
(-6.29255e-05 9.80906e-08 -3.88894e-08 -1.52857e-10 1.84169e-09 6.29257e-05)
(-6.30402e-05 2.88867e-07 -3.87795e-08 -1.32324e-09 5.3734e-09 6.30415e-05)
(-6.32503e-05 4.68425e-07 -3.84718e-08 -3.46804e-09 8.51646e-09 6.32537e-05)
(-6.35336e-05 6.3547e-07 -3.79944e-08 -6.35426e-09 1.10123e-08 6.35399e-05)
(-6.38604e-05 7.88844e-07 -3.73921e-08 -9.742e-09 1.26035e-08 6.38701e-05)
(-6.42e-05 9.2803e-07 -3.66776e-08 -1.34125e-08 1.31362e-08 6.42134e-05)
(-6.45218e-05 1.05271e-06 -3.58881e-08 -1.71733e-08 1.2518e-08 6.4539e-05)
(-6.47982e-05 1.16306e-06 -3.50519e-08 -2.0874e-08 1.0742e-08 6.48191e-05)
(-6.50058e-05 1.25958e-06 -3.42088e-08 -2.44055e-08 7.89477e-09 6.50302e-05)
(-6.51276e-05 1.3432e-06 -3.33902e-08 -2.77022e-08 4.15769e-09 6.51553e-05)
(-6.51543e-05 1.41509e-06 -3.26237e-08 -3.07346e-08 -2.16414e-10 6.5185e-05)
(-6.50838e-05 1.47664e-06 -3.19231e-08 -3.35018e-08 -4.93507e-09 6.51173e-05)
(-6.49208e-05 1.52919e-06 -3.1287e-08 -3.60178e-08 -9.69999e-09 6.49568e-05)
(-6.46756e-05 1.57407e-06 -3.07043e-08 -3.8306e-08 -1.42367e-08 6.47139e-05)
(-6.43622e-05 1.61223e-06 -3.01177e-08 -4.03797e-08 -1.83788e-08 6.44026e-05)
(-6.39946e-05 1.64426e-06 -2.94929e-08 -4.22389e-08 -2.20697e-08 6.40368e-05)
(-6.3586e-05 1.67029e-06 -2.87481e-08 -4.38648e-08 -2.5372e-08 6.36299e-05)
(-6.31459e-05 1.69003e-06 -2.78313e-08 -4.52181e-08 -2.84759e-08 6.31911e-05)
(-6.26792e-05 1.70272e-06 -2.66426e-08 -4.62385e-08 -3.17127e-08 6.27254e-05)
(-6.21844e-05 1.70721e-06 -2.51325e-08 -4.68484e-08 -3.55449e-08 6.22312e-05)
(-6.16536e-05 1.70213e-06 -2.3233e-08 -4.6965e-08 -4.05679e-08 6.17006e-05)
(-6.10711e-05 1.68602e-06 -2.09191e-08 -4.65089e-08 -4.74782e-08 6.11176e-05)
(-6.04146e-05 1.65737e-06 -1.81351e-08 -4.54127e-08 -5.70016e-08 6.046e-05)
(-5.96561e-05 1.6148e-06 -1.48984e-08 -4.36275e-08 -6.98726e-08 5.96997e-05)
(-5.87636e-05 1.55739e-06 -1.12806e-08 -4.11462e-08 -8.67527e-08 5.88047e-05)
(-5.77031e-05 1.48493e-06 -7.4244e-09 -3.801e-08 -1.08113e-07 5.77411e-05)
(-5.64424e-05 1.39825e-06 -3.56984e-09 -3.43207e-08 -1.34002e-07 5.64768e-05)
(-5.49566e-05 1.29931e-06 1.15233e-10 -3.02301e-08 -1.63922e-07 5.49869e-05)
(-5.32327e-05 1.19077e-06 3.84907e-09 -2.59059e-08 -1.97363e-07 5.32586e-05)
(-5.12636e-05 1.0716e-06 9.08748e-09 -2.13209e-08 -2.3546e-07 5.1285e-05)
(-4.90237e-05 9.3918e-07 1.52158e-08 -1.63984e-08 -2.79884e-07 4.90401e-05)
(-4.64841e-05 7.94894e-07 2.1342e-08 -1.12435e-08 -3.30874e-07 4.64954e-05)
(-4.36249e-05 6.42298e-07 2.70082e-08 -6.01581e-09 -3.87859e-07 4.3631e-05)
(-4.04364e-05 4.86245e-07 3.16298e-08 -8.55158e-10 -4.49664e-07 4.04372e-05)
(-3.69236e-05 3.3338e-07 3.43355e-08 4.13278e-09 -5.13835e-07 3.69195e-05)
(-3.31157e-05 1.92343e-07 3.40755e-08 8.89689e-09 -5.75986e-07 3.31068e-05)
(-2.90761e-05 7.31067e-08 2.99632e-08 1.3456e-08 -6.29685e-07 2.90626e-05)
(-2.49081e-05 -1.48794e-08 2.18264e-08 1.78785e-08 -6.67236e-07 2.48902e-05)
(-2.07517e-05 -6.56982e-08 1.08097e-08 2.2206e-08 -6.81604e-07 2.07295e-05)
(-1.67655e-05 -7.99876e-08 -4.66739e-10 2.63606e-08 -6.69062e-07 1.67392e-05)
(-1.30969e-05 -6.68478e-08 -8.34944e-09 3.01529e-08 -6.31277e-07 1.30667e-05)
(-9.85018e-06 -4.21613e-08 -1.03189e-08 3.34567e-08 -5.7468e-07 9.81672e-06)
(-7.07368e-06 -2.03497e-08 -7.81103e-09 3.64058e-08 -5.06589e-07 7.03728e-06)
(-4.77492e-06 -7.28846e-09 -4.21973e-09 3.93638e-08 -4.31819e-07 4.73555e-06)
(-2.94294e-06 -1.70019e-09 -1.63234e-09 4.28019e-08 -3.52328e-07 2.90014e-06)
(-1.56291e-06 -1.40621e-10 -3.91189e-10 4.7431e-08 -2.68106e-07 1.51548e-06)
(-6.25795e-07 2.77203e-11 -3.5845e-11 5.49573e-08 -1.77121e-07 5.70838e-07)
(-1.42539e-07 2.29315e-12 -2.29158e-12 7.12697e-08 -7.12697e-08 7.12697e-08)
(-0.00211053 2.93955e-06 1.12071e-06 -4.07825e-09 1.8203e-07 0.00211053)
(-0.00211427 8.65776e-06 1.1652e-06 -3.53171e-08 5.3083e-07 0.00211431)
(-0.00212114 1.40412e-05 1.20487e-06 -9.26086e-08 8.40504e-07 0.00212123)
(-0.0021304 1.9055e-05 1.26412e-06 -1.69871e-07 1.08441e-06 0.00213057)
(-0.00214108 2.36676e-05 1.33773e-06 -2.60891e-07 1.23614e-06 0.00214134)
(-0.00215218 2.78633e-05 1.42095e-06 -3.59952e-07 1.27988e-06 0.00215254)
(-0.0021627 3.16322e-05 1.50812e-06 -4.61963e-07 1.20618e-06 0.00216316)
(-0.00217173 3.49765e-05 1.59385e-06 -5.62813e-07 1.01433e-06 0.00217229)
(-0.00217852 3.79078e-05 1.67271e-06 -6.59371e-07 7.13181e-07 0.00217918)
(-0.00218251 4.04482e-05 1.74022e-06 -7.49564e-07 3.21329e-07 0.00218326)
(-0.0021834 4.26275e-05 1.79306e-06 -8.3223e-07 -1.35314e-07 0.00218423)
(-0.00218112 4.4481e-05 1.82972e-06 -9.0697e-07 -6.26781e-07 0.00218202)
(-0.00217581 4.60444e-05 1.85043e-06 -9.7385e-07 -1.12248e-06 0.00217679)
(-0.00216781 4.73532e-05 1.85723e-06 -1.03326e-06 -1.59424e-06 0.00216885)
(-0.00215758 4.84341e-05 1.85529e-06 -1.08544e-06 -2.02494e-06 0.00215866)
(-0.00214556 4.93048e-05 1.84929e-06 -1.13042e-06 -2.4088e-06 0.00214669)
(-0.00213218 4.99724e-05 1.84625e-06 -1.16777e-06 -2.75218e-06 0.00213335)
(-0.00211777 5.04324e-05 1.85193e-06 -1.19666e-06 -3.07463e-06 0.00211896)
(-0.00210247 5.06698e-05 1.87387e-06 -1.21577e-06 -3.41013e-06 0.00210369)
(-0.00208625 5.06599e-05 1.91678e-06 -1.22339e-06 -3.80618e-06 0.00208747)
(-0.00206883 5.0371e-05 1.98524e-06 -1.21758e-06 -4.32411e-06 0.00207005)
(-0.00204961 4.97668e-05 2.08048e-06 -1.19627e-06 -5.03589e-06 0.00205081)
(-0.00202796 4.88157e-05 2.20351e-06 -1.15753e-06 -6.01663e-06 0.00202912)
(-0.00200297 4.74878e-05 2.3505e-06 -1.09938e-06 -7.34243e-06 0.00200407)
(-0.00197358 4.57646e-05 2.5133e-06 -1.01997e-06 -9.08247e-06 0.0019746)
(-0.00193869 4.36425e-05 2.67873e-06 -9.17463e-07 -1.12872e-05 0.0019396)
(-0.00189722 4.11387e-05 2.8279e-06 -7.90189e-07 -1.39648e-05 0.00189801)
(-0.00184831 3.82945e-05 2.94661e-06 -6.37007e-07 -1.7066e-05 0.00184895)
(-0.0017915 3.51757e-05 3.05314e-06 -4.56646e-07 -2.05374e-05 0.00179196)
(-0.00172657 3.17878e-05 3.22844e-06 -2.39401e-07 -2.44963e-05 0.00172681)
(-0.00165263 2.8108e-05 3.44057e-06 3.303e-08 -2.91198e-05 0.00165259)
(-0.00156871 2.41853e-05 3.63296e-06 3.80891e-07 -3.4437e-05 0.00156833)
(-0.00147415 2.01073e-05 3.77502e-06 8.30507e-07 -4.03945e-05 0.00147332)
(-0.00136858 1.59837e-05 3.8307e-06 1.41784e-06 -4.68795e-05 0.00136717)
(-0.0012521 1.1956e-05 3.74723e-06 2.18535e-06 -5.36461e-05 0.00124991)
(-0.00112552 8.19946e-06 3.46327e-06 3.17127e-06 -6.02435e-05 0.00112235)
(-0.000990773 4.91163e-06 2.93146e-06 4.38919e-06 -6.59952e-05 0.000986384)
(-0.000851106 2.28382e-06 2.15269e-06 5.80171e-06 -7.0073e-05 0.000845305)
(-0.000711049 4.55194e-07 1.21148e-06 7.30351e-06 -7.16946e-05 0.000703746)
(-0.000575949 -5.30746e-07 2.8553e-07 8.74087e-06 -7.04132e-05 0.000567208)
(-0.000450926 -7.79813e-07 -3.82004e-07 9.98308e-06 -6.63515e-05 0.000440943)
(-0.000340288 -5.88224e-07 -6.20037e-07 1.10192e-05 -6.02386e-05 0.000329269)
(-0.000246035 -2.97781e-07 -5.1573e-07 1.19431e-05 -5.28765e-05 0.000234092)
(-0.000168469 -9.74071e-08 -2.99689e-07 1.28692e-05 -4.4749e-05 0.0001556)
(-0.000106912 -1.01854e-08 -1.27333e-07 1.38433e-05 -3.5894e-05 9.30683e-05)
(-5.8906e-05 9.00965e-09 -3.52905e-08 1.42985e-05 -2.52551e-05 4.46075e-05)
(-1.88301e-05 3.35609e-09 -3.35601e-09 9.41507e-06 -9.41507e-06 9.41506e-06)
(-6.25795e-07 3.58499e-11 -2.7715e-11 5.70837e-07 -1.7712e-07 5.49572e-08)
(-0.0149536 1.81551e-05 1.63136e-05 -2.17042e-08 2.22703e-06 0.0149537)
(-0.0149731 5.34292e-05 1.66076e-05 -1.87787e-07 6.49195e-06 0.0149733)
(-0.0150088 8.65874e-05 1.69008e-05 -4.92372e-07 1.02697e-05 0.0150093)
(-0.0150567 0.00011746 1.73499e-05 -9.04454e-07 1.32342e-05 0.0150576)
(-0.0151116 0.000145858 1.79252e-05 -1.39246e-06 1.50657e-05 0.015113)
(-0.0151684 0.000171699 1.85999e-05 -1.92711e-06 1.55761e-05 0.0151704)
(-0.015222 0.000194939 1.93407e-05 -2.48187e-06 1.46568e-05 0.0152245)
(-0.0152676 0.0002156 2.01145e-05 -3.03419e-06 1.23048e-05 0.0152707)
(-0.0153016 0.000233754 2.08854e-05 -3.56568e-06 8.63095e-06 0.0153052)
(-0.0153212 0.000249523 2.1621e-05 -4.06261e-06 3.86027e-06 0.0153252)
(-0.0153248 0.000263068 2.22951e-05 -4.51574e-06 -1.69699e-06 0.0153293)
(-0.0153122 0.000274571 2.28929e-05 -4.92003e-06 -7.68436e-06 0.0153171)
(-0.015284 0.000284218 2.34113e-05 -5.27369e-06 -1.37383e-05 0.0152893)
(-0.0152418 0.000292189 2.38616e-05 -5.57747e-06 -1.95237e-05 0.0152474)
(-0.0151878 0.000298624 2.42827e-05 -5.8325e-06 -2.48363e-05 0.0151937)
(-0.0151242 0.000303623 2.47113e-05 -6.03932e-06 -2.96077e-05 0.0151302)
(-0.0150529 0.000307237 2.52067e-05 -6.19677e-06 -3.39147e-05 0.0150591)
(-0.0149753 0.000309468 2.58217e-05 -6.30155e-06 -3.7995e-05 0.0149816)
(-0.0148921 0.000310274 2.6627e-05 -6.34777e-06 -4.22628e-05 0.0148984)
(-0.0148028 0.000309583 2.76723e-05 -6.32716e-06 -4.72982e-05 0.0148091)
(-0.0147065 0.000307295 2.90013e-05 -6.22817e-06 -5.3862e-05 0.0147127)
(-0.0146015 0.000303302 3.0638e-05 -6.03506e-06 -6.28622e-05 0.0146075)
(-0.0144826 0.00029747 3.26035e-05 -5.7261e-06 -7.5241e-05 0.0144883)
(-0.0143446 0.000289713 3.48711e-05 -5.27059e-06 -9.19776e-05 0.0143499)
(-0.0141817 0.000279985 3.7373e-05 -4.62327e-06 -0.000113997 0.0141864)
(-0.0139873 0.000268266 3.99934e-05 -3.71845e-06 -0.000142041 0.013991)
(-0.0137546 0.000254575 4.25526e-05 -2.46993e-06 -0.000176396 0.0137571)
(-0.0134773 0.000239006 4.48766e-05 -7.80341e-07 -0.00021668 0.0134781)
(-0.0131507 0.000221909 4.70387e-05 1.46173e-06 -0.000262428 0.0131492)
(-0.0127717 0.000203553 4.9678e-05 4.50388e-06 -0.000315289 0.0127672)
(-0.0123329 0.00018409 5.25107e-05 8.78677e-06 -0.000377791 0.0123241)
(-0.0118259 0.000163834 5.50139e-05 1.48753e-05 -0.000450733 0.011811)
(-0.0112432 0.000143104 5.68701e-05 2.35272e-05 -0.000533989 0.0112197)
(-0.0105785 0.000122168 5.76743e-05 3.57731e-05 -0.000626752 0.0105427)
(-0.00982677 0.000101293 5.68233e-05 5.28655e-05 -0.000726449 0.00977391)
(-0.00898707 8.07645e-05 5.3582e-05 7.60399e-05 -0.000827555 0.00891103)
(-0.00806478 6.09392e-05 4.72841e-05 0.000106011 -0.000920899 0.00795877)
(-0.00707474 4.23585e-05 3.76755e-05 0.000142237 -0.000994129 0.0069325)
(-0.00604327 2.58901e-05 2.53426e-05 0.000182284 -0.00103404 0.00586099)
(-0.00500842 1.29457e-05 1.20107e-05 0.000222026 -0.00103097 0.00478639)
(-0.0040188 5.00728e-06 7.87237e-07 0.000257648 -0.000984391 0.00376115)
(-0.00311148 1.75234e-06 -5.09054e-06 0.000287512 -0.000901055 0.00282397)
(-0.00231198 1.06233e-06 -5.64268e-06 0.000312244 -0.000790191 0.00199974)
(-0.00162296 1.00435e-06 -3.6733e-06 0.000329561 -0.000652881 0.0012934)
(-0.001008 7.70923e-07 -1.58284e-06 0.000318258 -0.000468527 0.000689747)
(-0.000420535 3.2655e-07 -3.2655e-07 0.000210268 -0.000210268 0.000210268)
(-5.89059e-05 3.52907e-08 -9.0095e-09 4.46075e-05 -2.5255e-05 1.42984e-05)
(-1.56291e-06 3.91198e-10 1.40629e-10 1.51548e-06 -2.68106e-07 4.7431e-08)
(-0.0269027 2.74382e-05 -9.44664e-05 -2.66528e-08 6.08039e-06 0.0269027)
(-0.0268925 8.06452e-05 -9.47597e-05 -2.30561e-07 1.76973e-05 0.0268928)
(-0.0268738 0.000130386 -9.43237e-05 -6.04546e-07 2.79153e-05 0.0268744)
(-0.0268481 0.00017637 -9.36592e-05 -1.11232e-06 3.58626e-05 0.0268492)
(-0.0268178 0.000218357 -9.27734e-05 -1.71836e-06 4.07209e-05 0.0268195)
(-0.0267855 0.000256308 -9.16641e-05 -2.38928e-06 4.20514e-05 0.0267879)
(-0.0267541 0.000290287 -9.03409e-05 -3.09378e-06 3.96401e-05 0.0267572)
(-0.0267264 0.000320463 -8.88224e-05 -3.80302e-06 3.35422e-05 0.0267303)
(-0.0267051 0.00034707 -8.71396e-05 -4.49093e-06 2.40837e-05 0.0267096)
(-0.026692 0.000370382 -8.53262e-05 -5.13521e-06 1.18476e-05 0.0266971)
(-0.0266883 0.000390681 -8.34135e-05 -5.71853e-06 -2.40091e-06 0.026694)
(-0.0266944 0.00040823 -8.1418e-05 -6.22935e-06 -1.78059e-05 0.0267006)
(-0.0267096 0.000423254 -7.93413e-05 -6.66187e-06 -3.35033e-05 0.0267162)
(-0.0267328 0.000435941 -7.71596e-05 -7.01572e-06 -4.86953e-05 0.0267398)
(-0.0267624 0.000446416 -7.47974e-05 -7.2928e-06 -6.29005e-05 0.0267697)
(-0.0267969 0.000454762 -7.21785e-05 -7.49533e-06 -7.5968e-05 0.0268044)
(-0.0268347 0.000461024 -6.91775e-05 -7.62337e-06 -8.81127e-05 0.0268423)
(-0.0268748 0.000465227 -6.56715e-05 -7.6732e-06 -9.99727e-05 0.0268825)
(-0.0269166 0.000467389 -6.14929e-05 -7.63539e-06 -0.000112671 0.0269242)
(-0.0269598 0.000467559 -5.65022e-05 -7.49361e-06 -0.000127813 0.0269672)
(-0.0270041 0.000465744 -5.05586e-05 -7.2171e-06 -0.000147544 0.0270113)
(-0.0270496 0.000461932 -4.35362e-05 -6.75353e-06 -0.000174469 0.0270563)
(-0.0270975 0.000456213 -3.52887e-05 -6.02097e-06 -0.000211473 0.0271036)
(-0.0271481 0.000448721 -2.5738e-05 -4.88428e-06 -0.000261761 0.027153)
(-0.0272007 0.000439574 -1.48552e-05 -3.12549e-06 -0.000328683 0.0272039)
(-0.0272533 0.000428804 -2.66809e-06 -4.0786e-07 -0.000415551 0.0272537)
(-0.027302 0.000416262 1.06724e-05 3.74785e-06 -0.000525051 0.0272982)
(-0.0273399 0.000401654 2.49079e-05 9.9604e-06 -0.00065871 0.02733)
(-0.027357 0.000385145 3.99013e-05 1.90351e-05 -0.000818179 0.027338)
(-0.0273393 0.000367769 5.63443e-05 3.24566e-05 -0.00101129 0.0273069)
(-0.0272688 0.000350979 7.41699e-05 5.27992e-05 -0.00124979 0.027216)
(-0.0271209 0.000335506 9.29571e-05 8.37294e-05 -0.00154244 0.0270372)
(-0.0268645 0.00032139 0.000112343 0.00013057 -0.00189682 0.0267339)
(-0.0264607 0.000308071 0.000131486 0.000201083 -0.00231969 0.0262596)
(-0.0258629 0.000294151 0.000148751 0.000305805 -0.00281245 0.025557)
(-0.0250182 0.000277059 0.000161594 0.000457408 -0.00336474 0.0245607)
(-0.0238719 0.00025305 0.000166566 0.000668146 -0.00394718 0.0232037)
(-0.0223756 0.000218117 0.000159534 0.00094457 -0.00450598 0.0214311)
(-0.0205006 0.000170162 0.000136415 0.00128007 -0.00496413 0.0192205)
(-0.0182557 0.000113913 9.47531e-05 0.00164903 -0.00523467 0.0166067)
(-0.0157136 6.39239e-05 4.13172e-05 0.0020123 -0.00525112 0.0137013)
(-0.0129717 3.22338e-05 -1.77528e-06 0.00232889 -0.0049785 0.0106428)
(-0.0100905 1.7899e-05 -1.91264e-05 0.00254106 -0.00437989 0.00754947)
(-0.00699235 1.16931e-05 -1.58675e-05 0.00248385 -0.0033464 0.00450849)
(-0.0036409 6.1695e-06 -6.16951e-06 0.00182045 -0.00182045 0.00182045)
(-0.001008 1.58284e-06 -7.70923e-07 0.000689747 -0.000468526 0.000318257)
(-0.000106912 1.27334e-07 1.01856e-08 9.30682e-05 -3.58939e-05 1.38433e-05)
(-2.94294e-06 1.63236e-09 1.7002e-09 2.90014e-06 -3.52328e-07 4.28018e-08)
(0.00667615 -5.43211e-06 4.3063e-05 3.76778e-09 -2.12149e-06 -0.00667615)
(0.006776 -1.6255e-05 4.36807e-05 3.33917e-08 -6.2658e-06 -0.00677604)
(0.00695782 -2.70617e-05 4.43907e-05 9.09554e-08 -1.01458e-05 -0.00695791)
(0.00720188 -3.79915e-05 4.52845e-05 1.76018e-07 -1.34923e-05 -0.00720206)
(0.00748331 -4.90426e-05 4.62167e-05 2.88783e-07 -1.59254e-05 -0.0074836)
(0.00777654 -6.00496e-05 4.70447e-05 4.27666e-07 -1.70996e-05 -0.00777697)
(0.00805692 -7.07296e-05 4.76489e-05 5.87958e-07 -1.67102e-05 -0.00805751)
(0.00830231 -8.0732e-05 4.7943e-05 7.61035e-07 -1.45786e-05 -0.00830307)
(0.00849458 -8.96926e-05 4.78781e-05 9.34754e-07 -1.0716e-05 -0.00849552)
(0.00862068 -9.72842e-05 4.744e-05 1.09514e-06 -5.35459e-06 -0.00862178)
(0.00867321 -0.000103258 4.66416e-05 1.229e-06 1.08318e-06 -0.00867444)
(0.00865027 -0.000107465 4.5512e-05 1.32646e-06 8.05866e-06 -0.0086516)
(0.00855462 -0.000109862 4.40879e-05 1.38254e-06 1.50051e-05 -0.00855601)
(0.00839263 -0.000110505 4.24049e-05 1.39748e-06 2.14139e-05 -0.00839403)
(0.00817295 -0.000109526 4.04833e-05 1.37513e-06 2.69732e-05 -0.00817433)
(0.00790386 -0.000107094 3.83424e-05 1.32079e-06 3.1572e-05 -0.00790518)
(0.00759248 -0.00010339 3.59837e-05 1.23932e-06 3.52872e-05 -0.00759372)
(0.00724272 -9.85744e-05 3.34075e-05 1.13366e-06 3.83523e-05 -0.00724386)
(0.00685488 -9.27723e-05 3.05996e-05 1.00392e-06 4.11136e-05 -0.00685588)
(0.00642495 -8.60703e-05 2.75531e-05 8.47219e-07 4.39483e-05 -0.0064258)
(0.00595293 -7.86036e-05 2.42743e-05 6.58062e-07 4.72183e-05 -0.00595359)
(0.0054292 -7.03797e-05 2.07972e-05 4.27086e-07 5.10415e-05 -0.00542962)
(0.00482657 -6.12099e-05 1.71228e-05 1.44493e-07 5.49817e-05 -0.00482672)
(0.0041227 -5.09971e-05 1.33169e-05 -1.89439e-07 5.79638e-05 -0.00412251)
(0.00329354 -3.96415e-05 9.48899e-06 -5.44209e-07 5.7859e-05 -0.00329299)
(0.00231455 -2.70466e-05 5.79456e-06 -8.15895e-07 5.10935e-05 -0.00231374)
(0.00116116 -1.31363e-05 2.44202e-06 -7.46303e-07 3.219e-05 -0.00116041)
(-0.000190061 2.07104e-06 -3.21086e-07 2.05814e-07 -6.58002e-06 0.000189855)
(-0.00176028 1.82977e-05 -2.23293e-06 3.06044e-06 -7.55415e-05 0.00175722)
(-0.0035733 3.53475e-05 -2.39541e-06 9.72128e-06 -0.000189384 0.00356358)
(-0.00562677 5.3863e-05 1.48792e-07 2.36905e-05 -0.000368215 0.00560308)
(-0.00790667 7.50368e-05 5.9002e-06 5.12065e-05 -0.000638581 0.00785546)
(-0.0103896 0.000100218 1.54834e-05 0.000103062 -0.00103446 0.0102866)
(-0.0130352 0.00013084 2.94269e-05 0.000197397 -0.00159731 0.0128378)
(-0.0157816 0.000167701 4.8143e-05 0.000363305 -0.00237289 0.0154183)
(-0.0185425 0.000209611 7.20202e-05 0.000644362 -0.00340294 0.0178981)
(-0.021206 0.000251468 0.000101344 0.00109988 -0.00471016 0.0201061)
(-0.0236313 0.000282406 0.000135174 0.00180003 -0.00627633 0.0218313)
(-0.025639 0.000284758 0.000167464 0.00280977 -0.00801552 0.0228292)
(-0.0269877 0.000242409 0.000177016 0.00415525 -0.00974437 0.0228325)
(-0.0273272 0.000165401 0.000132162 0.00577238 -0.0111559 0.0215549)
(-0.0261343 8.93993e-05 4.76883e-05 0.00743734 -0.0117923 0.018697)
(-0.022557 4.62172e-05 -1.83121e-05 0.00855491 -0.0109447 0.0140021)
(-0.0156418 3.06258e-05 -3.06258e-05 0.00782091 -0.00782091 0.00782091)
(-0.00699234 1.58674e-05 -1.16931e-05 0.00450849 -0.0033464 0.00248385)
(-0.00162296 3.67329e-06 -1.00435e-06 0.0012934 -0.00065288 0.00032956)
(-0.000168469 2.99689e-07 9.74072e-08 0.0001556 -4.47489e-05 1.28691e-05)
(-4.77491e-06 4.21975e-09 7.28847e-09 4.73555e-06 -4.31819e-07 3.93638e-08)
(0.0557226 -3.3919e-05 2.63272e-05 1.03203e-08 -2.4002e-05 -0.0557226)
(0.0558496 -0.00010052 2.30739e-05 9.33851e-08 -6.99484e-05 -0.0558497)
(0.0560831 -0.000163995 1.76654e-05 2.61636e-07 -0.000110571 -0.0560833)
(0.0563956 -0.000223984 9.97802e-06 5.29383e-07 -0.000142526 -0.0563961)
(0.0567575 -0.000280514 4.98542e-07 9.20804e-07 -0.000162507 -0.0567584)
(0.0571391 -0.000333237 -1.02921e-05 1.44609e-06 -0.000168449 -0.0571405)
(0.057513 -0.000381694 -2.18819e-05 2.09156e-06 -0.000159133 -0.0575151)
(0.0578554 -0.000425348 -3.37499e-05 2.81294e-06 -0.000134454 -0.0578582)
(0.0581477 -0.000463684 -4.53958e-05 3.5388e-06 -9.55324e-05 -0.0581512)
(0.0583767 -0.000496255 -5.63851e-05 4.18309e-06 -4.46879e-05 -0.0583809)
(0.0585353 -0.000522746 -6.63929e-05 4.66431e-06 1.48646e-05 -0.05854)
(0.0586215 -0.000542982 -7.52472e-05 4.92301e-06 7.94705e-05 -0.0586264)
(0.0586372 -0.00055694 -8.29101e-05 4.93238e-06 0.000145473 -0.0586421)
(0.0585869 -0.000564764 -8.95006e-05 4.69974e-06 0.000209638 -0.0585916)
(0.0584765 -0.0005667 -9.53592e-05 4.25208e-06 0.00027013 -0.0584808)
(0.0583104 -0.000563097 -0.000100811 3.61864e-06 0.000326601 -0.058314)
(0.0580908 -0.000554346 -0.000106309 2.81283e-06 0.000380275 -0.0580936)
(0.0578155 -0.000540879 -0.000112205 1.81504e-06 0.000434077 -0.0578173)
(0.0574779 -0.000523094 -0.000118897 5.52192e-07 0.000492733 -0.0574785)
(0.0570674 -0.000501397 -0.000126609 -1.12477e-06 0.000562631 -0.0570663)
(0.0565876 -0.000476336 -0.00013583 -3.47415e-06 0.000651544 -0.0565841)
(0.056015 -0.000448281 -0.000146387 -6.9178e-06 0.000767792 -0.0560081)
(0.0553139 -0.000417528 -0.000157864 -1.21241e-05 0.000919766 -0.0553017)
(0.0544544 -0.000384388 -0.000169746 -2.01207e-05 0.00111545 -0.0544343)
(0.0534056 -0.000349231 -0.000181421 -3.23972e-05 0.00136102 -0.0533732)
(0.0521368 -0.000312318 -0.000192356 -5.10012e-05 0.00165991 -0.0520858)
(0.0506157 -0.000273652 -0.000202045 -7.85327e-05 0.00201123 -0.0505372)
(0.0488071 -0.000232419 -0.000209953 -0.000118066 0.00240908 -0.0486891)
(0.0466738 -0.000185143 -0.00021381 -0.000173546 0.00284667 -0.0465002)
(0.0441738 -0.000139372 -0.000210087 -0.000249976 0.00331592 -0.0439238)
(0.0412803 -0.000106222 -0.000200725 -0.000353115 0.00380223 -0.0409272)
(0.0379912 -8.58423e-05 -0.000187624 -0.000488773 0.00428136 -0.0375025)
(0.0343216 -7.55725e-05 -0.000171418 -0.000660923 0.00471647 -0.0336606)
(0.0303045 -7.31147e-05 -0.000153301 -0.000868579 0.00505631 -0.029436)
(0.0259896 -7.53242e-05 -0.000134774 -0.00110025 0.00523319 -0.0248893)
(0.0214211 -7.79889e-05 -0.000116791 -0.00132482 0.00516038 -0.0200963)
(0.0165976 -7.60239e-05 -9.84878e-05 -0.00147719 0.0047269 -0.0151204)
(0.0114122 -6.3649e-05 -7.60108e-05 -0.00143387 0.00378344 -0.00997831)
(0.0055813 -3.45657e-05 -4.21078e-05 -0.000968069 0.00211384 -0.00461323)
(-0.00144367 8.19844e-06 1.14473e-05 0.000337304 -0.000611016 0.00110637)
(-0.0103534 4.14599e-05 6.55085e-05 0.00317891 -0.00477611 0.0071745)
(-0.0205297 3.8283e-05 5.70976e-05 0.00811161 -0.0100366 0.0124181)
(-0.0272052 1.54065e-05 -1.54067e-05 0.0136026 -0.0136026 0.0136026)
(-0.022557 1.8312e-05 -4.62173e-05 0.0140021 -0.0109447 0.00855491)
(-0.0100905 1.91264e-05 -1.7899e-05 0.00754947 -0.00437988 0.00254105)
(-0.00231198 5.64267e-06 -1.06234e-06 0.00199974 -0.000790191 0.000312244)
(-0.000246035 5.1573e-07 2.97781e-07 0.000234092 -5.28765e-05 1.1943e-05)
(-7.07368e-06 7.81105e-09 2.03497e-08 7.03727e-06 -5.06588e-07 3.64057e-08)
(0.0757295 -3.13341e-05 -0.000146196 -1.27789e-08 -4.40825e-05 -0.0757295)
(0.0757137 -9.23402e-05 -0.000150529 -1.05012e-07 -0.000128145 -0.0757136)
(0.075684 -0.00014971 -0.000153192 -2.41589e-07 -0.000201368 -0.0756837)
(0.0756443 -0.000203216 -0.000157527 -3.34347e-07 -0.000257526 -0.075644)
(0.075598 -0.000252532 -0.000163468 -2.83249e-07 -0.000291188 -0.0755977)
(0.0755482 -0.00029722 -0.000170973 -2.33605e-08 -0.000299329 -0.0755482)
(0.0754978 -0.000336803 -0.000179935 4.51656e-07 -0.000280641 -0.0754983)
(0.0754491 -0.000370759 -0.000190175 1.07759e-06 -0.000235741 -0.0754502)
(0.0754037 -0.000398619 -0.000201444 1.72996e-06 -0.000167155 -0.0754055)
(0.0753629 -0.000419981 -0.000213464 2.25281e-06 -7.91176e-05 -0.0753652)
(0.0753272 -0.000434564 -0.000225969 2.49871e-06 2.30017e-05 -0.0753297)
(0.0752969 -0.000442189 -0.000238777 2.36329e-06 0.000133436 -0.0752992)
(0.0752719 -0.000442789 -0.000251778 1.80403e-06 0.000246679 -0.0752737)
(0.0752521 -0.000436454 -0.000265013 8.39548e-07 0.00035813 -0.075253)
(0.0752377 -0.000423322 -0.000278822 -4.81732e-07 0.000465532 -0.0752372)
(0.0752289 -0.00040363 -0.000293546 -2.11972e-06 0.000569144 -0.0752267)
(0.0752263 -0.000377628 -0.000309803 -4.08286e-06 0.000671911 -0.0752222)
(0.0752312 -0.000345588 -0.000328194 -6.47032e-06 0.000779727 -0.0752247)
(0.0752452 -0.000307646 -0.000349566 -9.52554e-06 0.000901682 -0.0752357)
(0.0752703 -0.000263822 -0.000374558 -1.37013e-05 0.0010498 -0.0752566)
(0.0753062 -0.000214174 -0.000403885 -1.97657e-05 0.00123879 -0.0752865)
(0.0753569 -0.000158837 -0.000438158 -2.89758e-05 0.00148566 -0.075328)
(0.0754266 -9.75892e-05 -0.000478004 -4.33357e-05 0.00180922 -0.0753832)
(0.0755187 -2.98395e-05 -0.000523727 -6.59791e-05 0.00222986 -0.0754527)
(0.0756366 4.49627e-05 -0.000575528 -0.000101617 0.00276847 -0.075535)
(0.0757834 0.000127433 -0.000633836 -0.000157129 0.00344613 -0.0756263)
(0.0759623 0.000217846 -0.000699205 -0.000242211 0.00428344 -0.0757201)
(0.0761766 0.000315119 -0.000772393 -0.000370217 0.00530078 -0.0758064)
(0.0764298 0.000419049 -0.000849232 -0.000560052 0.00652378 -0.0758697)
(0.0749054 0.00051269 -0.000861571 -0.000820703 0.00780445 -0.0740847)
(0.0723701 0.000594316 -0.000836847 -0.0011782 0.00916639 -0.0711919)
(0.0696785 0.000665346 -0.000806987 -0.00167349 0.0106759 -0.068005)
(0.0669379 0.00072127 -0.000774341 -0.00235139 0.0123304 -0.0645865)
(0.0642919 0.000757474 -0.000741072 -0.00326934 0.0141296 -0.0610226)
(0.061892 0.000767895 -0.000710354 -0.00449801 0.0160698 -0.057394)
(0.0598324 0.000744767 -0.000685552 -0.00611584 0.0181249 -0.0537166)
(0.0580326 0.000678886 -0.00066896 -0.00818355 0.0201951 -0.049849)
(0.0560427 0.000560643 -0.000659302 -0.0106643 0.0219951 -0.0453784)
(0.0527471 0.000402269 -0.000646579 -0.013227 0.0228611 -0.0395201)
(0.0459602 0.000261654 -0.000562785 -0.0148327 0.0214871 -0.0311275)
(0.0315415 0.000124869 -0.000283681 -0.0127994 0.0154885 -0.018742)
(0.00614905 1.88464e-05 -1.88463e-05 -0.00307453 0.00307452 -0.00307452)
(-0.0205297 -5.70978e-05 -3.82832e-05 0.0124181 -0.0100366 0.00811161)
(-0.0261343 -4.76884e-05 -8.93995e-05 0.018697 -0.0117923 0.00743733)
(-0.0129717 1.77523e-06 -3.22338e-05 0.0106428 -0.00497849 0.00232889)
(-0.00311148 5.09054e-06 -1.75235e-06 0.00282397 -0.000901054 0.000287512)
(-0.000340288 6.20036e-07 5.88224e-07 0.000329269 -6.02385e-05 1.10192e-05)
(-9.85017e-06 1.0319e-08 4.21613e-08 9.81672e-06 -5.74679e-07 3.34566e-08)
(0.0743539 -1.64888e-05 0.000311152 -3.99859e-08 -5.70049e-05 -0.0743538)
(0.0743387 -4.81397e-05 0.000307788 -3.37594e-07 -0.000165693 -0.0743383)
(0.0743103 -7.74903e-05 0.00030323 -8.27511e-07 -0.000259992 -0.0743095)
(0.0742723 -0.000104732 0.000296326 -1.3335e-06 -0.000331908 -0.0742709)
(0.0742274 -0.000129225 0.000287192 -1.66561e-06 -0.000374855 -0.0742257)
(0.0741782 -0.000150403 0.000275901 -1.6921e-06 -0.000385114 -0.0741765)
(0.0741268 -0.000167652 0.000262592 -1.37925e-06 -0.000361201 -0.0741255)
(0.0740751 -0.0001803 0.000247495 -8.09e-07 -0.000304067 -0.0740743)
(0.0740242 -0.000187742 0.000230919 -1.61569e-07 -0.000217026 -0.074024)
(0.073975 -0.000189436 0.000213215 3.31548e-07 -0.00010543 -0.0739753)
(0.073928 -0.000184968 0.000194711 4.49947e-07 2.40838e-05 -0.0739285)
(0.0738836 -0.000174008 0.000175633 3.7015e-08 0.000164558 -0.0738836)
(0.073842 -0.000156308 0.000156121 -9.7402e-07 0.000309567 -0.073841)
(0.0738037 -0.00013176 0.000136136 -2.56558e-06 0.000454039 -0.0738011)
(0.0737694 -0.000100239 0.000115279 -4.68526e-06 0.00059589 -0.0737647)
(0.0737401 -6.16692e-05 9.31575e-05 -7.30854e-06 0.000736253 -0.0737328)
(0.0737173 -1.59198e-05 6.90361e-05 -1.05046e-05 0.00087964 -0.0737067)
(0.0737027 3.71617e-05 4.22062e-05 -1.45102e-05 0.00103418 -0.0736882)
(0.0736986 9.79382e-05 1.16226e-05 -1.9822e-05 0.00121171 -0.0736788)
(0.073707 0.000166791 -2.35007e-05 -2.7319e-05 0.00142741 -0.0736797)
(0.0737288 0.000244164 -6.41644e-05 -3.84711e-05 0.00169967 -0.0736904)
(0.0737677 0.000330515 -0.000111015 -5.56424e-05 0.00204958 -0.0737121)
(0.073827 0.000426503 -0.000164973 -8.25054e-05 0.0024998 -0.0737445)
(0.0739093 0.000533022 -0.000226467 -0.000124662 0.00307459 -0.0737846)
(0.0740165 0.000650575 -0.000295698 -0.000190357 0.00379841 -0.0738261)
(0.0741496 0.00077919 -0.00037296 -0.000291401 0.00469566 -0.0738582)
(0.0743093 0.000917436 -0.000457922 -0.000444226 0.00578999 -0.073865)
(0.0744961 0.0010598 -0.000549651 -0.000671225 0.00710407 -0.0738249)
(0.0747114 0.00119512 -0.000646769 -0.00100238 0.00866005 -0.073709)
(0.0749491 0.00133145 -0.000739711 -0.00148078 0.0104926 -0.0734683)
(0.0751888 0.00148346 -0.000824316 -0.00216565 0.0126349 -0.0730232)
(0.0754046 0.00163982 -0.000898996 -0.00312992 0.015095 -0.0722747)
(0.0755678 0.00177974 -0.000957788 -0.00446098 0.0178571 -0.0711068)
(0.0756476 0.0018814 -0.000992727 -0.00625705 0.0208732 -0.0693905)
(0.075618 0.00192181 -0.000998769 -0.00861641 0.0240512 -0.0670016)
(0.0754703 0.00188222 -0.000978594 -0.0116234 0.0272536 -0.0638469)
(0.0752324 0.00175608 -0.000947079 -0.0153376 0.0303115 -0.0598948)
(0.0750016 0.0015471 -0.000932732 -0.0197956 0.0330551 -0.055206)
(0.0750023 0.00127914 -0.00098946 -0.0250408 0.0353666 -0.0499615)
(0.0756553 0.00113291 -0.00114748 -0.0312354 0.0372476 -0.04442)
(0.0660015 0.000846066 -0.000846065 -0.0330008 0.0330008 -0.0330008)
(0.0315414 0.000283681 -0.000124868 -0.018742 0.0154885 -0.0127994)
(-0.0103534 -6.55087e-05 -4.14601e-05 0.00717452 -0.00477612 0.00317891)
(-0.0273272 -0.000132162 -0.000165402 0.0215549 -0.0111559 0.00577238)
(-0.0157136 -4.13172e-05 -6.3924e-05 0.0137013 -0.00525112 0.0020123)
(-0.00401879 -7.87248e-07 -5.00729e-06 0.00376115 -0.00098439 0.000257648)
(-0.000450926 3.82003e-07 7.79812e-07 0.000440943 -6.63515e-05 9.98306e-06)
(-1.30969e-05 8.34945e-09 6.68477e-08 1.30667e-05 -6.31276e-07 3.01529e-08)
(0.0739062 -2.11945e-06 0.000489506 -7.01187e-08 -7.19797e-05 -0.0739061)
(0.0738916 -5.90485e-06 0.000485523 -5.91375e-07 -0.000209009 -0.0738911)
(0.0738655 -8.74895e-06 0.000475745 -1.4512e-06 -0.000327317 -0.0738641)
(0.0738303 -1.05349e-05 0.000461789 -2.3574e-06 -0.000417006 -0.0738279)
(0.073788 -1.06165e-05 0.000444207 -2.99992e-06 -0.000470157 -0.073785)
(0.0737406 -8.29928e-06 0.000423501 -3.16125e-06 -0.000482272 -0.0737374)
(0.0736895 -2.84837e-06 0.000400204 -2.77886e-06 -0.000451692 -0.0736867)
(0.0736359 6.51136e-06 0.000374909 -1.96987e-06 -0.000379754 -0.0736339)
(0.0735805 2.04742e-05 0.000348246 -1.00277e-06 -0.000270654 -0.0735795)
(0.0735241 3.96677e-05 0.000320817 -2.24649e-07 -0.000130952 -0.0735239)
(0.0734671 6.46054e-05 0.000293117 3.17917e-08 3.13879e-05 -0.0734671)
(0.0734102 9.57633e-05 0.000265434 -4.75135e-07 0.000208231 -0.0734097)
(0.0733541 0.000133615 0.000237907 -1.86167e-06 0.000392345 -0.0733523)
(0.0733 0.000178527 0.000210415 -4.13301e-06 0.000578396 -0.0732959)