/*--------------------------------*- C++ -*----------------------------------*\
| =========                 |                                                 |
| \\      /  F ield         | OpenFOAM: The Open Source CFD Toolbox           |
|  \\    /   O peration     | Version:  2412                                  |
|   \\  /    A nd           | Website:  www.openfoam.com                      |
|    \\/     M anipulation  |                                                 |
\*---------------------------------------------------------------------------*/
FoamFile
{
    version     2.0;
    format      ascii;
    arch        "LSB;label=32;scalar=64";
    class       volScalarField;
    location    "1830";
    object      I1;
}
// * * * * * * * * * * * * * * * * * * * * * * * * * * * * * * * * * * * * * //

dimensions      [0 0 0 0 0 0 0];

internalField   nonuniform List<scalar> 
2304
(
1.87476e-05
1.87822e-05
1.88454e-05
1.89308e-05
1.90292e-05
1.91315e-05
1.92286e-05
1.93121e-05
1.93751e-05
1.94124e-05
1.94212e-05
1.94011e-05
1.93532e-05
1.92808e-05
1.9188e-05
1.9079e-05
1.89577e-05
1.88269e-05
1.86881e-05
1.85407e-05
1.83826e-05
1.82088e-05
1.80128e-05
1.77862e-05
1.75194e-05
1.72024e-05
1.68255e-05
1.63815e-05
1.58664e-05
1.52783e-05
1.46094e-05
1.38513e-05
1.2998e-05
1.20467e-05
1.09992e-05
9.86403e-06
8.6602e-06
7.41845e-06
6.18036e-06
4.99305e-06
3.90036e-06
2.93336e-06
2.10645e-06
1.42187e-06
8.76327e-07
4.65386e-07
1.8634e-07
4.24432e-08
0.000641044
0.000642215
0.000644363
0.000647258
0.000650598
0.000654071
0.000657366
0.000660201
0.000662339
0.000663607
0.000663909
0.000663223
0.000661597
0.000659133
0.000655974
0.00065226
0.000648125
0.000643664
0.00063893
0.000633907
0.000628509
0.000622555
0.000615843
0.000608095
0.000598988
0.000588182
0.000575349
0.000560232
0.000542693
0.000522673
0.000499911
0.000474124
0.000445121
0.000412812
0.000377242
0.000338688
0.000297754
0.000255439
0.000213121
0.00017241
0.000134828
0.000101644
7.34271e-05
5.02421e-05
3.18657e-05
1.75495e-05
5.6079e-06
1.8634e-07
0.00532157
0.00533028
0.00534621
0.00536763
0.00539228
0.00541784
0.005442
0.00546268
0.00547814
0.00548715
0.00548898
0.0054835
0.00547102
0.00545228
0.00542827
0.00539999
0.00536836
0.00533402
0.00529727
0.00525797
0.00521571
0.00516978
0.00511797
0.00505815
0.00498791
0.00490465
0.00480577
0.00468907
0.00455316
0.00439741
0.00421963
0.00401745
0.00378917
0.00353374
0.00325094
0.00294211
0.00261093
0.00226412
0.0019117
0.00156666
0.00124415
0.000954453
0.000703635
0.000490656
0.000302967
0.000125706
1.75495e-05
4.65386e-07
0.0184073
0.01843
0.0184714
0.0185268
0.0185905
0.0186565
0.0187188
0.0187722
0.0188125
0.0188365
0.0188424
0.01883
0.0187998
0.0187537
0.0186938
0.0186226
0.018542
0.0184534
0.0183573
0.0182531
0.0181403
0.0180169
0.0178766
0.0177138
0.017522
0.0172939
0.0170222
0.0166995
0.0163197
0.0158785
0.0153682
0.0147807
0.0141089
0.0133463
0.012488
0.0115315
0.0104796
0.00934157
0.00813641
0.00689482
0.00566295
0.00447773
0.00334877
0.00223547
0.00112284
0.000302967
3.18657e-05
8.76326e-07
0.0344706
0.0344972
0.0345456
0.0346104
0.0346849
0.0347621
0.0348357
0.0348999
0.03495
0.0349828
0.0349965
0.0349905
0.0349657
0.0349236
0.0348663
0.0347958
0.0347139
0.0346216
0.0345185
0.0344037
0.0342767
0.0341348
0.0339701
0.0337757
0.033544
0.0332663
0.0329332
0.0325343
0.032058
0.0314896
0.0308189
0.030036
0.0291291
0.0280862
0.0268955
0.0255452
0.0240222
0.0223091
0.0203808
0.0181979
0.0157105
0.0128424
0.00946644
0.00563045
0.00223547
0.000490656
5.0242e-05
1.42187e-06
0.0446909
0.0447126
0.0447525
0.0448058
0.0448674
0.0449323
0.0449957
0.0450536
0.045103
0.0451416
0.0451683
0.0451829
0.0451856
0.0451772
0.0451586
0.0451307
0.0450937
0.0450472
0.0449902
0.0449206
0.0448392
0.0447416
0.0446217
0.0444741
0.0442929
0.0440722
0.0438052
0.0434843
0.0431009
0.0426445
0.0421062
0.0414803
0.040763
0.039953
0.0390507
0.0380547
0.0369509
0.0356944
0.0341762
0.0321552
0.0291431
0.0244387
0.0175333
0.00946643
0.00334877
0.000703634
7.34271e-05
2.10645e-06
0.04805
0.04805
0.04805
0.04805
0.04805
0.04805
0.04805
0.04805
0.04805
0.04805
0.04805
0.04805
0.04805
0.04805
0.04805
0.04805
0.04805
0.04805
0.04805
0.04805
0.04805
0.04805
0.04805
0.04805
0.04805
0.04805
0.04805
0.04805
0.04805
0.047803
0.0474104
0.0469881
0.046552
0.046125
0.0457324
0.0453912
0.0450897
0.0447524
0.0441845
0.042976
0.0402068
0.0343294
0.0244387
0.0128424
0.00447773
0.000954453
0.000101644
2.93335e-06
0.04805
0.04805
0.04805
0.04805
0.04805
0.04805
0.04805
0.04805
0.04805
0.04805
0.04805
0.04805
0.04805
0.04805
0.04805
0.04805
0.04805
0.04805
0.04805
0.04805
0.04805
0.04805
0.04805
0.04805
0.04805
0.04805
0.04805
0.04805
0.04805
0.04805
0.04805
0.04805
0.04805
0.04805
0.04805
0.04805
0.04805
0.04805
0.04805
0.04805
0.0464068
0.0402068
0.0291431
0.0157104
0.00566294
0.00124415
0.000134828
3.90035e-06
0.04805
0.04805
0.04805
0.04805
0.04805
0.04805
0.04805
0.04805
0.04805
0.04805
0.04805
0.04805
0.04805
0.04805
0.04805
0.04805
0.04805
0.04805
0.04805
0.04805
0.04805
0.04805
0.04805
0.04805
0.04805
0.04805
0.04805
0.04805
0.04805
0.04805
0.04805
0.04805
0.04805
0.04805
0.04805
0.04805
0.04805
0.04805
0.04805
0.04805
0.04805
0.042976
0.0321552
0.0181979
0.00689482
0.00156665
0.00017241
4.99305e-06
0.04805
0.04805
0.04805
0.04805
0.04805
0.04805
0.04805
0.04805
0.04805
0.04805
0.04805
0.04805
0.04805
0.04805
0.04805
0.04805
0.04805
0.04805
0.04805
0.04805
0.04805
0.04805
0.04805
0.04805
0.04805
0.04805
0.04805
0.04805
0.04805
0.04805
0.04805
0.04805
0.04805
0.04805
0.04805
0.04805
0.04805
0.04805
0.04805
0.04805
0.04805
0.0441844
0.0341761
0.0203808
0.0081364
0.0019117
0.000213121
6.18035e-06
0.04805
0.04805
0.04805
0.04805
0.04805
0.04805
0.04805
0.04805
0.04805
0.04805
0.04805
0.04805
0.04805
0.04805
0.04805
0.04805
0.04805
0.04805
0.04805
0.04805
0.04805
0.04805
0.04805
0.04805
0.04805
0.04805
0.04805
0.04805
0.04805
0.04805
0.04805
0.04805
0.04805
0.04805
0.04805
0.04805
0.04805
0.04805
0.04805
0.04805
0.04805
0.0447524
0.0356943
0.0223091
0.00934157
0.00226412
0.000255438
7.41844e-06
0.04805
0.04805
0.04805
0.04805
0.04805
0.04805
0.04805
0.04805
0.04805
0.04805
0.04805
0.04805
0.04805
0.04805
0.04805
0.04805
0.04805
0.04805
0.04805
0.04805
0.04805
0.04805
0.04805
0.04805
0.04805
0.04805
0.04805
0.04805
0.04805
0.04805
0.04805
0.04805
0.04805
0.04805
0.04805
0.04805
0.04805
0.04805
0.04805
0.04805
0.04805
0.0450897
0.0369509
0.0240222
0.0104796
0.00261093
0.000297753
8.66019e-06
0.04805
0.04805
0.04805
0.04805
0.04805
0.04805
0.04805
0.04805
0.04805
0.04805
0.04805
0.04805
0.04805
0.04805
0.04805
0.04805
0.04805
0.04805
0.04805
0.04805
0.04805
0.04805
0.04805
0.04805
0.04805
0.04805
0.04805
0.04805
0.04805
0.04805
0.04805
0.04805
0.04805
0.04805
0.04805
0.04805
0.04805
0.04805
0.04805
0.04805
0.04805
0.0453912
0.0380547
0.0255452
0.0115315
0.00294211
0.000338688
9.86402e-06
0.04805
0.04805
0.04805
0.04805
0.04805
0.04805
0.04805
0.04805
0.04805
0.04805
0.04805
0.04805
0.04805
0.04805
0.04805
0.04805
0.04805
0.04805
0.04805
0.04805
0.04805
0.04805
0.04805
0.04805
0.04805
0.04805
0.04805
0.04805
0.04805
0.04805
0.04805
0.04805
0.04805
0.04805
0.04805
0.04805
0.04805
0.04805
0.04805
0.04805
0.04805
0.0457324
0.0390507
0.0268955
0.012488
0.00325094
0.000377242
1.09992e-05
0.04805
0.04805
0.04805
0.04805
0.04805
0.04805
0.04805
0.04805
0.04805
0.04805
0.04805
0.04805
0.04805
0.04805
0.04805
0.04805
0.04805
0.04805
0.04805
0.04805
0.04805
0.04805
0.04805
0.04805
0.04805
0.04805
0.04805
0.04805
0.04805
0.04805
0.04805
0.04805
0.04805
0.04805
0.04805
0.04805
0.04805
0.04805
0.04805
0.04805
0.04805
0.046125
0.039953
0.0280861
0.0133463
0.00353374
0.000412811
1.20467e-05
0.04805
0.04805
0.04805
0.04805
0.04805
0.04805
0.04805
0.04805
0.04805
0.04805
0.04805
0.04805
0.04805
0.04805
0.04805
0.04805
0.04805
0.04805
0.04805
0.04805
0.04805
0.04805
0.04805
0.04805
0.04805
0.0479456
0.0478837
0.0478928
0.047987
0.04805
0.04805
0.04805
0.04805
0.04805
0.04805
0.04805
0.04805
0.04805
0.04805
0.04805
0.04805
0.046552
0.040763
0.0291291
0.0141089
0.00378917
0.000445121
1.2998e-05
0.04805
0.04805
0.04805
0.04805
0.04805
0.04805
0.04805
0.04805
0.04805
0.04805
0.04805
0.04805
0.04805
0.04805
0.04805
0.04805
0.04805
0.04805
0.04805
0.04805
0.04805
0.04805
0.0479055
0.0477072
0.0475513
0.0474582
0.047442
0.0474925
0.0475979
0.0477558
0.0480283
0.04805
0.04805
0.04805
0.04805
0.04805
0.04805
0.04805
0.04805
0.04805
0.04805
0.0469881
0.0414803
0.030036
0.0147807
0.00401744
0.000474123
1.38512e-05
0.04805
0.04805
0.04805
0.04805
0.04805
0.04805
0.04805
0.04805
0.04805
0.04805
0.04805
0.04805
0.04805
0.04805
0.04805
0.04805
0.04805
0.04805
0.04805
0.04805
0.0477959
0.0475471
0.0473312
0.047173
0.0470724
0.0470268
0.0470519
0.0471448
0.0472958
0.0474889
0.0476964
0.0480283
0.04805
0.04805
0.04805
0.04805
0.04805
0.04805
0.04805
0.04805
0.04805
0.0474104
0.0421062
0.0308189
0.0153682
0.00421963
0.000499911
1.46094e-05
0.04805
0.04805
0.04805
0.04805
0.04805
0.04805
0.04805
0.04805
0.04805
0.04805
0.04805
0.04805
0.04805
0.04805
0.04805
0.04805
0.04805
0.0480086
0.0477268
0.0474444
0.0471881
0.0469718
0.0467836
0.0466471
0.0465782
0.0465791
0.046652
0.0467918
0.0469872
0.0472279
0.0474889
0.0477558
0.04805
0.04805
0.04805
0.04805
0.04805
0.04805
0.04805
0.04805
0.04805
0.047803
0.0426445
0.0314896
0.0158785
0.00439741
0.000522672
1.52783e-05
0.04805
0.04805
0.04805
0.04805
0.04805
0.04805
0.04805
0.04805
0.04805
0.04805
0.04805
0.04805
0.04805
0.04805
0.04805
0.0479835
0.0476901
0.0473917
0.0471096
0.046846
0.0465844
0.0463672
0.0462036
0.046107
0.0460855
0.0461397
0.0462662
0.0464577
0.0467025
0.0469872
0.0472958
0.0475979
0.047987
0.04805
0.04805
0.04805
0.04805
0.04805
0.04805
0.04805
0.04805
0.04805
0.0431009
0.032058
0.0163197
0.00455316
0.000542693
1.58664e-05
0.04805
0.04805
0.04805
0.04805
0.04805
0.04805
0.04805
0.04805
0.04805
0.04805
0.04805
0.04805
0.04805
0.0480171
0.0477042
0.047389
0.0470841
0.0467809
0.046466
0.0461797
0.0459298
0.0457393
0.0456196
0.0455778
0.0456154
0.0457294
0.0459139
0.0461606
0.0464577
0.0467918
0.0471448
0.0474925
0.0478928
0.04805
0.04805
0.04805
0.04805
0.04805
0.04805
0.04805
0.04805
0.04805
0.0434843
0.0325343
0.0166995
0.00468907
0.000560231
1.63815e-05
0.04805
0.04805
0.04805
0.04805
0.04805
0.04805
0.04805
0.04805
0.04805
0.04805
0.04805
0.04805
0.047807
0.0474579
0.0471233
0.0467841
0.0464235
0.0460765
0.0457517
0.0454739
0.0452582
0.0451175
0.0450579
0.0450809
0.0451841
0.0453624
0.0456087
0.0459139
0.0462662
0.046652
0.0470519
0.047442
0.0478837
0.04805
0.04805
0.04805
0.04805
0.04805
0.04805
0.04805
0.04805
0.04805
0.0438052
0.0329332
0.0170222
0.00480577
0.000575348
1.68255e-05
0.04805
0.04805
0.04805
0.04805
0.04805
0.04805
0.04805
0.04805
0.04805
0.04805
0.0480296
0.047634
0.047257
0.0468796
0.0464707
0.0460658
0.0456711
0.0453108
0.0450022
0.0447619
0.0446008
0.044525
0.0445359
0.0446308
0.0448046
0.045051
0.0453624
0.0457294
0.0461397
0.0465791
0.0470268
0.0474583
0.0479456
0.04805
0.04805
0.04805
0.04805
0.04805
0.04805
0.04805
0.04805
0.04805
0.0440721
0.0332663
0.0172939
0.00490464
0.000588181
1.72024e-05
0.04805
0.04805
0.04805
0.04805
0.04805
0.04805
0.04805
0.04805
0.04805
0.0479586
0.0475085
0.0470837
0.046635
0.0461716
0.0457059
0.0452632
0.0448611
0.0445189
0.0442513
0.0440693
0.0439784
0.0439787
0.0440674
0.0442389
0.0444869
0.0448046
0.0451841
0.0456154
0.0460855
0.0465782
0.0470724
0.0475513
0.04805
0.04805
0.04805
0.04805
0.04805
0.04805
0.04805
0.04805
0.04805
0.04805
0.0442929
0.033544
0.017522
0.0049879
0.000598987
1.75194e-05
0.04805
0.04805
0.04805
0.04805
0.04805
0.04805
0.04805
0.04805
0.0479279
0.0474274
0.0469449
0.0464195
0.0458856
0.0453585
0.0448593
0.0444096
0.0440278
0.0437295
0.0435246
0.0434176
0.043408
0.0434916
0.0436624
0.0439137
0.0442389
0.0446308
0.0450809
0.0455778
0.046107
0.0466471
0.047173
0.0477072
0.04805
0.04805
0.04805
0.04805
0.04805
0.04805
0.04805
0.04805
0.04805
0.04805
0.0444741
0.0337757
0.0177138
0.00505814
0.000608094
1.77861e-05
0.04805
0.04805
0.04805
0.04805
0.04805
0.04805
0.04805
0.0479258
0.0473737
0.0468291
0.046237
0.0456278
0.0450309
0.0444684
0.0439631
0.0435354
0.043201
0.0429692
0.0428438
0.042823
0.0429016
0.0430726
0.0433285
0.0436624
0.0440674
0.0445359
0.0450579
0.0456196
0.0462036
0.0467836
0.0473312
0.0479055
0.04805
0.04805
0.04805
0.04805
0.04805
0.04805
0.04805
0.04805
0.04805
0.04805
0.0446217
0.0339701
0.0178766
0.00511796
0.000615843
1.80127e-05
0.04805
0.04805
0.04805
0.04805
0.04805
0.04805
0.0479333
0.0473387
0.0467425
0.0460846
0.0454033
0.0447315
0.0440982
0.0435298
0.0430489
0.0426715
0.0424074
0.0422593
0.0422246
0.0422968
0.0424678
0.0427289
0.0430726
0.0434916
0.0439788
0.044525
0.0451175
0.0457393
0.0463672
0.0469718
0.0475471
0.04805
0.04805
0.04805
0.04805
0.04805
0.04805
0.04805
0.04805
0.04805
0.04805
0.04805
0.0447416
0.0341348
0.0180169
0.00516978
0.000622554
1.82088e-05
0.04805
0.04805
0.04805
0.04805
0.04805
0.0479213
0.0473052
0.0466749
0.0459612
0.0452112
0.0444646
0.0437559
0.0431177
0.0425755
0.0421478
0.0418443
0.041668
0.0416152
0.0416784
0.0418479
0.042114
0.0424678
0.0429016
0.043408
0.0439784
0.0446008
0.0452582
0.0459298
0.0465844
0.0471881
0.0477959
0.04805
0.04805
0.04805
0.04805
0.04805
0.04805
0.04805
0.04805
0.04805
0.04805
0.04805
0.0448391
0.0342767
0.0181403
0.00521571
0.000628508
1.83825e-05
0.04805
0.04805
0.04805
0.04805
0.0478503
0.047248
0.0466073
0.045855
0.0450461
0.0442284
0.043444
0.0427315
0.0421217
0.0416358
0.0412857
0.0410746
0.0409986
0.0410489
0.0412145
0.0414843
0.0418479
0.0422968
0.042823
0.0434176
0.0440693
0.0447619
0.0454739
0.0461797
0.046846
0.0474445
0.04805
0.04805
0.04805
0.04805
0.04805
0.04805
0.04805
0.04805
0.04805
0.04805
0.04805
0.04805
0.0449206
0.0344037
0.0182531
0.00525796
0.000633906
1.85407e-05
0.04805
0.04805
0.04805
0.0476778
0.0471362
0.0465125
0.045745
0.0448937
0.0440151
0.0431589
0.0423716
0.04169
0.04114
0.0407364
0.0404839
0.0403787
0.0404116
0.0405702
0.0408418
0.0412145
0.0416784
0.0422246
0.0428438
0.0435246
0.0442513
0.0450022
0.0457517
0.046466
0.0471096
0.0477268
0.04805
0.04805
0.04805
0.04805
0.04805
0.04805
0.04805
0.04805
0.04805
0.04805
0.04805
0.04805
0.0449902
0.0345185
0.0183573
0.00529727
0.000638929
1.8688e-05
0.0478953
0.0477185
0.0473865
0.046943
0.0463568
0.0456003
0.0447291
0.043806
0.0428884
0.0420309
0.0412775
0.0406603
0.0401983
0.0398988
0.0397592
0.0397702
0.0399184
0.0401895
0.0405702
0.0410489
0.0416153
0.0422593
0.0429693
0.0437295
0.0445189
0.0453109
0.0460765
0.0467809
0.0473917
0.0480086
0.04805
0.04805
0.04805
0.04805
0.04805
0.04805
0.04805
0.04805
0.04805
0.04805
0.04805
0.04805
0.0450472
0.0346215
0.0184534
0.00533401
0.000643663
1.88268e-05
0.0471605
0.0469876
0.0466481
0.0461018
0.0453795
0.0445149
0.0435699
0.0426079
0.0416913
0.0408721
0.0401894
0.0396677
0.0393181
0.0391406
0.0391263
0.0392615
0.0395306
0.0399184
0.0404116
0.0409986
0.041668
0.0424075
0.043201
0.0440278
0.0448611
0.0456711
0.0464235
0.0470841
0.0476902
0.04805
0.04805
0.04805
0.04805
0.04805
0.04805
0.04805
0.04805
0.04805
0.04805
0.04805
0.04805
0.04805
0.0450937
0.0347139
0.018542
0.00536835
0.000648124
1.89576e-05
0.0463758
0.0461401
0.0456878
0.0450257
0.044198
0.0432595
0.0422772
0.04132
0.0404481
0.0397081
0.0391311
0.0387332
0.0385177
0.0384776
0.0385993
0.0388661
0.0392615
0.0397702
0.0403787
0.0410746
0.0418444
0.0426716
0.0435354
0.0444096
0.0452632
0.0460658
0.0467841
0.047389
0.0479835
0.04805
0.04805
0.04805
0.04805
0.04805
0.04805
0.04805
0.04805
0.04805
0.04805
0.04805
0.04805
0.04805
0.0451307
0.0347958
0.0186226
0.00539999
0.000652259
1.9079e-05
0.0452816
0.0449923
0.0444509
0.0437019
0.0428062
0.0418352
0.0408643
0.0399615
0.0391808
0.0385606
0.038123
0.0378756
0.0378139
0.0379255
0.0381933
0.0385993
0.0391263
0.0397592
0.0404839
0.0412858
0.0421478
0.0430489
0.0439631
0.0448593
0.0457059
0.0464707
0.0471233
0.0477042
0.04805
0.04805
0.04805
0.04805
0.04805
0.04805
0.04805
0.04805
0.04805
0.04805
0.04805
0.04805
0.04805
0.04805
0.0451586
0.0348662
0.0186938
0.00542827
0.000655973
1.9188e-05
0.0438429
0.0435134
0.042912
0.0421114
0.0411947
0.0402466
0.0393439
0.0385492
0.0379079
0.0374486
0.0371837
0.0371125
0.037224
0.0375014
0.0379255
0.0384776
0.0391406
0.0398988
0.0407364
0.0416358
0.0425755
0.0435299
0.0444685
0.0453585
0.0461716
0.0468796
0.047458
0.0480171
0.04805
0.04805
0.04805
0.04805
0.04805
0.04805
0.04805
0.04805
0.04805
0.04805
0.04805
0.04805
0.04805
0.04805
0.0451772
0.0349236
0.0187537
0.00545228
0.000659133
1.92808e-05
0.0420134
0.0416613
0.0410352
0.0402344
0.0393586
0.0384982
0.0377265
0.0370976
0.0366461
0.0363897
0.0363314
0.0364625
0.0367667
0.037224
0.0378139
0.0385177
0.0393181
0.0401983
0.04114
0.0421217
0.0431177
0.0440982
0.0450309
0.0458856
0.0466351
0.047257
0.047807
0.04805
0.04805
0.04805
0.04805
0.04805
0.04805
0.04805
0.04805
0.04805
0.04805
0.04805
0.04805
0.04805
0.04805
0.04805
0.0451856
0.0349657
0.0187998
0.00547102
0.000661596
1.93532e-05
0.0397434
0.0393959
0.0387952
0.0380588
0.0372955
0.0365952
0.0360229
0.0356209
0.0354121
0.0354027
0.0355861
0.0359463
0.0364625
0.0371125
0.0378756
0.0387332
0.0396677
0.0406603
0.04169
0.0427315
0.0437559
0.0447315
0.0456279
0.0464195
0.0470838
0.047634
0.04805
0.04805
0.04805
0.04805
0.04805
0.04805
0.04805
0.04805
0.04805
0.04805
0.04805
0.04805
0.04805
0.04805
0.04805
0.04805
0.0451829
0.0349905
0.01883
0.00548349
0.000663222
1.9401e-05
0.0370027
0.0366935
0.0361777
0.03558
0.0350091
0.0345471
0.0342469
0.0341369
0.0342266
0.0345101
0.0349708
0.0355861
0.0363314
0.0371837
0.038123
0.0391311
0.0401894
0.0412775
0.0423716
0.043444
0.0444646
0.0454033
0.046237
0.0469449
0.0475085
0.0480296
0.04805
0.04805
0.04805
0.04805
0.04805
0.04805
0.04805
0.04805
0.04805
0.04805
0.04805
0.04805
0.04805
0.04805
0.04805
0.04805
0.0451683
0.0349965
0.0188424
0.00548898
0.000663908
1.94212e-05
0.0337811
0.0335495
0.0331858
0.0328081
0.0325148
0.0323735
0.0324214
0.032671
0.0331163
0.0337383
0.0345101
0.0354027
0.0363897
0.0374486
0.0385606
0.0397081
0.0408721
0.0420309
0.043159
0.0442284
0.0452112
0.0460846
0.0468291
0.0474274
0.0479586
0.04805
0.04805
0.04805
0.04805
0.04805
0.04805
0.04805
0.04805
0.04805
0.04805
0.04805
0.04805
0.04805
0.04805
0.04805
0.04805
0.04805
0.0451416
0.0349828
0.0188365
0.00548715
0.000663607
1.94124e-05
0.0300998
0.0299884
0.0298483
0.0297753
0.0298469
0.0301102
0.0305829
0.031259
0.0321148
0.0331163
0.0342266
0.0354121
0.0366461
0.0379079
0.0391808
0.0404481
0.0416913
0.0428884
0.0440151
0.0450461
0.0459612
0.0467425
0.0473737
0.0479279
0.04805
0.04805
0.04805
0.04805
0.04805
0.04805
0.04805
0.04805
0.04805
0.04805
0.04805
0.04805
0.04805
0.04805
0.04805
0.04805
0.04805
0.04805
0.045103
0.03495
0.0188125
0.00547814
0.000662338
1.9375e-05
0.0260196
0.0260717
0.0262264
0.0265422
0.0270644
0.0278134
0.0287836
0.0299466
0.031259
0.032671
0.0341369
0.0356209
0.0370976
0.0385492
0.0399615
0.04132
0.0426079
0.043806
0.0448937
0.045855
0.0466749
0.0473388
0.0479258
0.04805
0.04805
0.04805
0.04805
0.04805
0.04805
0.04805
0.04805
0.04805
0.04805
0.04805
0.04805
0.04805
0.04805
0.04805
0.04805
0.04805
0.04805
0.04805
0.0450536
0.0348999
0.0187722
0.00546268
0.000660201
1.93121e-05
0.0216438
0.0219001
0.0224166
0.0231995
0.0242512
0.0255584
0.0270871
0.0287836
0.0305829
0.0324214
0.0342469
0.0360229
0.0377265
0.0393439
0.0408643
0.0422772
0.0435699
0.0447291
0.045745
0.0466073
0.0473052
0.0479333
0.04805
0.04805
0.04805
0.04805
0.04805
0.04805
0.04805
0.04805
0.04805
0.04805
0.04805
0.04805
0.04805
0.04805
0.04805
0.04805
0.04805
0.04805
0.04805
0.04805
0.0449957
0.0348357
0.0187188
0.005442
0.000657366
1.92286e-05
0.0171168
0.017612
0.0185471
0.0198633
0.0215092
0.02343
0.0255584
0.0278134
0.0301102
0.0323735
0.0345471
0.0365951
0.0384982
0.0402466
0.0418352
0.0432595
0.0445149
0.0456003
0.0465126
0.047248
0.0479212
0.04805
0.04805
0.04805
0.04805
0.04805
0.04805
0.04805
0.04805
0.04805
0.04805
0.04805
0.04805
0.04805
0.04805
0.04805
0.04805
0.04805
0.04805
0.04805
0.04805
0.04805
0.0449323
0.0347621
0.0186565
0.00541784
0.000654071
1.91315e-05
0.0126245
0.0133811
0.0147725
0.0166658
0.0189459
0.0215092
0.0242512
0.0270644
0.0298469
0.0325148
0.0350091
0.0372955
0.0393586
0.0411947
0.0428062
0.044198
0.0453795
0.0463568
0.0471362
0.0478503
0.04805
0.04805
0.04805
0.04805
0.04805
0.04805
0.04805
0.04805
0.04805
0.04805
0.04805
0.04805
0.04805
0.04805
0.04805
0.04805
0.04805
0.04805
0.04805
0.04805
0.04805
0.04805
0.0448674
0.0346849
0.0185905
0.00539228
0.000650598
1.90292e-05
0.00839972
0.0094201
0.0112732
0.0137497
0.0166658
0.0198633
0.0231995
0.0265422
0.0297753
0.0328081
0.03558
0.0380587
0.0402344
0.0421114
0.0437019
0.0450257
0.0461018
0.046943
0.0476778
0.04805
0.04805
0.04805
0.04805
0.04805
0.04805
0.04805
0.04805
0.04805
0.04805
0.04805
0.04805
0.04805
0.04805
0.04805
0.04805
0.04805
0.04805
0.04805
0.04805
0.04805
0.04805
0.04805
0.0448058
0.0346104
0.0185268
0.00536763
0.000647257
1.89307e-05
0.00472881
0.00598737
0.00826143
0.0112732
0.0147725
0.0185471
0.0224166
0.0262264
0.0298482
0.0331858
0.0361777
0.0387952
0.0410352
0.042912
0.0444509
0.0456878
0.0466481
0.0473865
0.04805
0.04805
0.04805
0.04805
0.04805
0.04805
0.04805
0.04805
0.04805
0.04805
0.04805
0.04805
0.04805
0.04805
0.04805
0.04805
0.04805
0.04805
0.04805
0.04805
0.04805
0.04805
0.04805
0.04805
0.0447525
0.0345456
0.0184714
0.00534621
0.000644362
1.88454e-05
0.00194598
0.00338648
0.00598737
0.00942009
0.0133811
0.017612
0.0219001
0.0260717
0.0299884
0.0335494
0.0366935
0.0393959
0.0416613
0.0435134
0.0449923
0.0461401
0.0469876
0.0477185
0.04805
0.04805
0.04805
0.04805
0.04805
0.04805
0.04805
0.04805
0.04805
0.04805
0.04805
0.04805
0.04805
0.04805
0.04805
0.04805
0.04805
0.04805
0.04805
0.04805
0.04805
0.04805
0.04805
0.04805
0.0447126
0.0344972
0.01843
0.00533028
0.000642215
1.87821e-05
0.000405877
0.00194598
0.00472881
0.00839971
0.0126245
0.0171168
0.0216438
0.0260196
0.0300997
0.033781
0.0370027
0.0397434
0.0420134
0.0438429
0.0452816
0.0463758
0.0471605
0.0478953
0.04805
0.04805
0.04805
0.04805
0.04805
0.04805
0.04805
0.04805
0.04805
0.04805
0.04805
0.04805
0.04805
0.04805
0.04805
0.04805
0.04805
0.04805
0.04805
0.04805
0.04805
0.04805
0.04805
0.04805
0.0446909
0.0344705
0.0184073
0.00532157
0.000641044
1.87476e-05
)
;

boundaryField
{
    inlet
    {
        type            cyclic;
    }
    outlet
    {
        type            cyclic;
    }
    walls
    {
        type            calculated;
        value           nonuniform List<scalar> 
96
(
4.61161e-08
2.02202e-07
4.94129e-07
9.17654e-07
1.47548e-06
2.17201e-06
3.01048e-06
3.98864e-06
5.0923e-06
6.29075e-06
7.54037e-06
8.79386e-06
1.00092e-05
1.11552e-05
1.22125e-05
1.31723e-05
1.40329e-05
1.47973e-05
1.54714e-05
1.6064e-05
1.65828e-05
1.703e-05
1.74094e-05
1.77285e-05
1.79968e-05
1.82247e-05
1.84217e-05
1.85963e-05
1.87552e-05
1.89031e-05
1.90426e-05
1.9174e-05
1.92958e-05
1.94053e-05
1.94985e-05
1.95712e-05
1.96192e-05
1.96393e-05
1.96302e-05
1.95924e-05
1.95288e-05
1.94446e-05
1.93466e-05
1.92434e-05
1.91441e-05
1.90581e-05
1.89943e-05
1.89595e-05
1.89594e-05
1.89943e-05
1.90581e-05
1.91441e-05
1.92434e-05
1.93466e-05
1.94446e-05
1.95288e-05
1.95924e-05
1.96302e-05
1.96393e-05
1.96192e-05
1.95712e-05
1.94986e-05
1.94053e-05
1.92958e-05
1.9174e-05
1.90426e-05
1.89032e-05
1.87552e-05
1.85963e-05
1.84218e-05
1.82247e-05
1.79969e-05
1.77285e-05
1.74094e-05
1.703e-05
1.65828e-05
1.6064e-05
1.54714e-05
1.47973e-05
1.4033e-05
1.31723e-05
1.22125e-05
1.11552e-05
1.00092e-05
8.79387e-06
7.54037e-06
6.29075e-06
5.0923e-06
3.98864e-06
3.01048e-06
2.17201e-06
1.47548e-06
9.17655e-07
4.9413e-07
2.02202e-07
4.61161e-08
)
;
    }
    symPlanes
    {
        type            symmetry;
    }
}


// ************************************************************************* //
