/*--------------------------------*- C++ -*----------------------------------*\
| =========                 |                                                 |
| \\      /  F ield         | OpenFOAM: The Open Source CFD Toolbox           |
|  \\    /   O peration     | Version:  2412                                  |
|   \\  /    A nd           | Website:  www.openfoam.com                      |
|    \\/     M anipulation  |                                                 |
\*---------------------------------------------------------------------------*/
FoamFile
{
    version     2.0;
    format      ascii;
    arch        "LSB;label=32;scalar=64";
    class       volScalarField;
    location    "1830";
    object      I2;
}
// * * * * * * * * * * * * * * * * * * * * * * * * * * * * * * * * * * * * * //

dimensions      [0 0 0 0 0 0 0];

internalField   nonuniform List<scalar> 
2304
(
-1.87476e-05
-1.87821e-05
-1.88454e-05
-1.89307e-05
-1.90292e-05
-1.91315e-05
-1.92286e-05
-1.93121e-05
-1.9375e-05
-1.94124e-05
-1.94212e-05
-1.9401e-05
-1.93532e-05
-1.92808e-05
-1.9188e-05
-1.9079e-05
-1.89577e-05
-1.88269e-05
-1.8688e-05
-1.85407e-05
-1.83826e-05
-1.82088e-05
-1.80128e-05
-1.77861e-05
-1.75194e-05
-1.72024e-05
-1.68255e-05
-1.63815e-05
-1.58664e-05
-1.52783e-05
-1.46094e-05
-1.38512e-05
-1.29979e-05
-1.20467e-05
-1.09991e-05
-9.86398e-06
-8.66016e-06
-7.41842e-06
-6.18035e-06
-4.99304e-06
-3.90035e-06
-2.93334e-06
-2.10644e-06
-1.42186e-06
-8.76326e-07
-4.65386e-07
-1.8634e-07
-4.24432e-08
-0.000641043
-0.000642215
-0.000644362
-0.000647257
-0.000650597
-0.00065407
-0.000657365
-0.0006602
-0.000662337
-0.000663606
-0.000663907
-0.000663222
-0.000661596
-0.000659132
-0.000655972
-0.000652258
-0.000648124
-0.000643663
-0.000638928
-0.000633905
-0.000628507
-0.000622552
-0.00061584
-0.000608091
-0.000598983
-0.000588177
-0.000575343
-0.000560226
-0.000542686
-0.000522664
-0.000499901
-0.000474112
-0.000445108
-0.000412797
-0.000377228
-0.000338675
-0.000297744
-0.000255433
-0.000213119
-0.000172409
-0.000134827
-0.000101643
-7.3426e-05
-5.02415e-05
-3.18656e-05
-1.75495e-05
-5.6079e-06
-1.8634e-07
-0.00532155
-0.00533026
-0.00534619
-0.0053676
-0.00539226
-0.00541781
-0.00544197
-0.00546265
-0.00547812
-0.00548712
-0.00548895
-0.00548347
-0.00547099
-0.00545225
-0.00542824
-0.00539996
-0.00536833
-0.00533398
-0.00529723
-0.00525792
-0.00521566
-0.00516972
-0.00511789
-0.00505806
-0.0049878
-0.00490452
-0.00480563
-0.00468892
-0.00455298
-0.0043972
-0.00421938
-0.00401716
-0.00378885
-0.0035334
-0.0032506
-0.0029418
-0.00261069
-0.00226397
-0.00191166
-0.00156667
-0.00124416
-0.000954442
-0.000703617
-0.000490645
-0.000302964
-0.000125705
-1.75495e-05
-4.65386e-07
-0.0184068
-0.0184295
-0.0184708
-0.0185263
-0.01859
-0.018656
-0.0187183
-0.0187718
-0.018812
-0.018836
-0.018842
-0.0188296
-0.0187994
-0.0187533
-0.0186935
-0.0186223
-0.0185417
-0.0184531
-0.0183571
-0.0182529
-0.01814
-0.0180166
-0.0178764
-0.0177136
-0.0175217
-0.0172936
-0.0170219
-0.0166991
-0.0163192
-0.0158778
-0.0153673
-0.0147796
-0.0141076
-0.0133448
-0.0124864
-0.01153
-0.0104783
-0.00934086
-0.00813631
-0.00689515
-0.00566327
-0.0044778
-0.00334869
-0.0022354
-0.00112281
-0.000302964
-3.18656e-05
-8.76325e-07
-0.0344675
-0.0344941
-0.0345426
-0.0346075
-0.0346821
-0.0347594
-0.0348331
-0.0348974
-0.0349476
-0.0349805
-0.0349943
-0.0349885
-0.0349637
-0.0349217
-0.0348644
-0.034794
-0.0347122
-0.0346199
-0.0345169
-0.0344021
-0.0342751
-0.0341333
-0.0339686
-0.0337742
-0.0335425
-0.0332648
-0.0329317
-0.0325327
-0.0320563
-0.0314877
-0.0308167
-0.0300335
-0.0291262
-0.0280829
-0.026892
-0.0255419
-0.0240196
-0.022308
-0.0203814
-0.0181998
-0.0157123
-0.012843
-0.00946632
-0.00563026
-0.0022354
-0.000490645
-5.02415e-05
-1.42186e-06
-0.0446904
-0.0447121
-0.044752
-0.0448054
-0.044867
-0.0449318
-0.0449952
-0.0450532
-0.0451025
-0.0451412
-0.0451679
-0.0451825
-0.0451851
-0.0451767
-0.0451582
-0.0451302
-0.0450931
-0.0450466
-0.0449895
-0.0449198
-0.0448381
-0.0447403
-0.0446202
-0.0444723
-0.0442908
-0.0440696
-0.0438022
-0.0434808
-0.0430968
-0.0426399
-0.0421012
-0.0414749
-0.0407573
-0.0399468
-0.039044
-0.0380476
-0.0369436
-0.0356874
-0.0341707
-0.0321527
-0.0291433
-0.024439
-0.0175332
-0.00946632
-0.00334869
-0.000703616
-7.34259e-05
-2.10644e-06
-0.0480487
-0.0480487
-0.0480487
-0.0480487
-0.0480487
-0.0480488
-0.0480488
-0.0480488
-0.0480487
-0.0480487
-0.0480487
-0.0480487
-0.0480486
-0.0480485
-0.0480484
-0.0480483
-0.0480481
-0.0480479
-0.0480477
-0.0480473
-0.0480469
-0.0480463
-0.0480456
-0.0480448
-0.0480437
-0.0480424
-0.0480406
-0.0480384
-0.0480359
-0.0477877
-0.0473948
-0.0469723
-0.046536
-0.0461084
-0.0457145
-0.0453708
-0.0450654
-0.0447234
-0.0441517
-0.0429461
-0.040191
-0.0343253
-0.024439
-0.012843
-0.0044778
-0.000954442
-0.000101643
-2.93334e-06
-0.0480468
-0.0480469
-0.048047
-0.0480472
-0.0480473
-0.0480476
-0.0480478
-0.0480481
-0.0480483
-0.0480486
-0.0480488
-0.048049
-0.0480493
-0.0480494
-0.0480496
-0.0480498
-0.0480499
-0.04805
-0.0480501
-0.0480502
-0.0480503
-0.0480504
-0.0480503
-0.0480501
-0.0480497
-0.048049
-0.0480479
-0.0480461
-0.0480431
-0.0480396
-0.0480367
-0.048034
-0.0480312
-0.0480281
-0.0480241
-0.0480185
-0.0480105
-0.0480003
-0.047988
-0.0479779
-0.0463548
-0.040191
-0.0291433
-0.0157123
-0.00566327
-0.00124416
-0.000134827
-3.90034e-06
-0.0480436
-0.0480437
-0.048044
-0.0480443
-0.0480448
-0.0480453
-0.0480458
-0.0480464
-0.048047
-0.0480475
-0.048048
-0.0480485
-0.0480489
-0.0480493
-0.0480496
-0.04805
-0.0480503
-0.0480507
-0.0480511
-0.0480516
-0.0480522
-0.0480527
-0.0480532
-0.0480536
-0.0480538
-0.0480535
-0.0480525
-0.0480509
-0.0480482
-0.0480443
-0.0480402
-0.048036
-0.0480317
-0.0480267
-0.0480207
-0.0480131
-0.048004
-0.0479945
-0.0479854
-0.0479746
-0.0479779
-0.0429461
-0.0321527
-0.0181998
-0.00689514
-0.00156666
-0.000172409
-4.99304e-06
-0.0480436
-0.0480438
-0.0480441
-0.0480445
-0.0480451
-0.0480457
-0.0480464
-0.0480471
-0.0480478
-0.0480485
-0.0480491
-0.0480496
-0.0480501
-0.0480506
-0.048051
-0.0480514
-0.0480519
-0.0480524
-0.0480531
-0.0480538
-0.0480547
-0.0480556
-0.0480564
-0.0480569
-0.0480568
-0.0480558
-0.0480534
-0.0480494
-0.0480436
-0.0480366
-0.0480297
-0.0480235
-0.0480179
-0.0480125
-0.0480067
-0.0480005
-0.0479942
-0.0479893
-0.0479862
-0.0479854
-0.047988
-0.0441517
-0.0341707
-0.0203814
-0.00813631
-0.00191166
-0.000213119
-6.18034e-06
-0.0480418
-0.048042
-0.0480425
-0.0480431
-0.0480439
-0.0480448
-0.0480458
-0.0480469
-0.0480479
-0.0480489
-0.0480498
-0.0480506
-0.0480514
-0.048052
-0.0480527
-0.0480534
-0.0480543
-0.0480553
-0.0480565
-0.048058
-0.0480597
-0.0480615
-0.0480632
-0.0480644
-0.0480646
-0.0480631
-0.0480592
-0.0480525
-0.0480431
-0.048032
-0.0480212
-0.0480119
-0.0480044
-0.0479982
-0.0479932
-0.0479893
-0.0479866
-0.0479862
-0.0479893
-0.0479945
-0.0480003
-0.0447234
-0.0356874
-0.022308
-0.00934085
-0.00226397
-0.000255433
-7.41842e-06
-0.0480393
-0.0480396
-0.0480403
-0.0480412
-0.0480424
-0.0480437
-0.0480452
-0.0480467
-0.0480483
-0.0480498
-0.0480511
-0.0480524
-0.0480535
-0.0480546
-0.0480557
-0.0480569
-0.0480584
-0.0480601
-0.0480623
-0.048065
-0.0480681
-0.0480714
-0.0480745
-0.0480767
-0.0480774
-0.0480752
-0.048069
-0.0480585
-0.0480445
-0.0480291
-0.0480148
-0.0480034
-0.0479949
-0.0479889
-0.0479851
-0.0479832
-0.0479836
-0.0479866
-0.0479942
-0.048004
-0.0480105
-0.0450654
-0.0369436
-0.0240196
-0.0104783
-0.00261069
-0.000297744
-8.66015e-06
-0.0480368
-0.0480372
-0.0480381
-0.0480394
-0.048041
-0.048043
-0.0480451
-0.0480473
-0.0480495
-0.0480516
-0.0480536
-0.0480554
-0.0480571
-0.0480587
-0.0480604
-0.0480624
-0.0480647
-0.0480676
-0.0480712
-0.0480755
-0.0480805
-0.0480858
-0.0480907
-0.0480941
-0.0480951
-0.048092
-0.0480826
-0.0480669
-0.0480468
-0.048026
-0.0480082
-0.0479952
-0.0479866
-0.0479816
-0.0479794
-0.04798
-0.0479832
-0.0479893
-0.0480005
-0.0480131
-0.0480185
-0.0453708
-0.0380476
-0.0255419
-0.01153
-0.0029418
-0.000338675
-9.86397e-06
-0.0480343
-0.0480349
-0.0480361
-0.0480379
-0.0480401
-0.0480428
-0.0480457
-0.0480488
-0.0480519
-0.0480548
-0.0480576
-0.0480602
-0.0480626
-0.048065
-0.0480675
-0.0480705
-0.048074
-0.0480785
-0.0480838
-0.0480904
-0.0480977
-0.0481054
-0.0481125
-0.0481171
-0.0481183
-0.0481133
-0.0480998
-0.0480783
-0.0480517
-0.0480244
-0.0480021
-0.0479876
-0.0479797
-0.0479764
-0.0479765
-0.0479794
-0.0479851
-0.0479932
-0.0480067
-0.0480207
-0.0480241
-0.0457145
-0.039044
-0.026892
-0.0124863
-0.00325059
-0.000377228
-1.09991e-05
-0.0480319
-0.0480328
-0.0480344
-0.0480367
-0.0480398
-0.0480433
-0.0480473
-0.0480515
-0.0480557
-0.0480598
-0.0480637
-0.0480673
-0.0480706
-0.048074
-0.0480777
-0.048082
-0.0480872
-0.0480936
-0.0481012
-0.0481104
-0.0481205
-0.0481304
-0.0481386
-0.0481423
-0.0481429
-0.0481364
-0.0481173
-0.0480883
-0.0480551
-0.0480236
-0.0479981
-0.0479821
-0.0479752
-0.047974
-0.0479764
-0.0479816
-0.0479889
-0.0479982
-0.0480125
-0.0480267
-0.0480281
-0.0461084
-0.0399468
-0.0280829
-0.0133448
-0.00353339
-0.000412797
-1.20467e-05
-0.0480299
-0.048031
-0.0480331
-0.0480362
-0.0480402
-0.0480449
-0.0480502
-0.0480558
-0.0480615
-0.048067
-0.0480722
-0.0480772
-0.0480818
-0.0480866
-0.0480918
-0.0480978
-0.0481049
-0.0481137
-0.0481239
-0.0481357
-0.0481466
-0.0481581
-0.0481688
-0.0481701
-0.0481621
-0.0480447
-0.0479604
-0.0479365
-0.0479915
-0.0480181
-0.0479927
-0.0479793
-0.0479742
-0.0479752
-0.0479797
-0.0479866
-0.0479949
-0.0480044
-0.0480179
-0.0480317
-0.0480312
-0.046536
-0.0407573
-0.0291261
-0.0141076
-0.00378885
-0.000445107
-1.29979e-05
-0.0480283
-0.0480297
-0.0480325
-0.0480365
-0.0480417
-0.0480479
-0.0480548
-0.0480621
-0.0480696
-0.048077
-0.0480841
-0.0480907
-0.048097
-0.0481036
-0.0481106
-0.0481187
-0.0481281
-0.0481391
-0.0481498
-0.0481649
-0.0481795
-0.0481846
-0.0480433
-0.0478427
-0.0476725
-0.0475572
-0.0475135
-0.0475302
-0.0475984
-0.047721
-0.0479674
-0.0479791
-0.0479793
-0.0479821
-0.0479876
-0.0479952
-0.0480034
-0.0480119
-0.0480235
-0.048036
-0.048034
-0.0469723
-0.0414749
-0.0300335
-0.0147796
-0.00401715
-0.000474111
-1.38512e-05
-0.0480274
-0.0480292
-0.0480328
-0.0480379
-0.0480445
-0.0480525
-0.0480614
-0.048071
-0.0480808
-0.0480905
-0.0480999
-0.0481087
-0.048117
-0.0481257
-0.0481349
-0.0481449
-0.0481551
-0.0481701
-0.048184
-0.0481909
-0.0479465
-0.0476987
-0.0474754
-0.0473055
-0.047186
-0.0471138
-0.0471072
-0.0471657
-0.0472842
-0.0474522
-0.0476436
-0.0479674
-0.0479927
-0.0479981
-0.0480021
-0.0480082
-0.0480148
-0.0480212
-0.0480297
-0.0480402
-0.0480367
-0.0473948
-0.0421011
-0.0308167
-0.0153673
-0.00421938
-0.0004999
-1.46094e-05
-0.0480273
-0.0480296
-0.0480341
-0.0480406
-0.048049
-0.048059
-0.0480705
-0.0480828
-0.0480956
-0.0481082
-0.0481205
-0.0481321
-0.0481427
-0.0481535
-0.048164
-0.0481777
-0.0481901
-0.0481563
-0.0478852
-0.0476043
-0.0473447
-0.0471243
-0.046924
-0.0467684
-0.0466737
-0.0466445
-0.0466863
-0.0467965
-0.046968
-0.047194
-0.0474522
-0.047721
-0.0480181
-0.0480236
-0.0480244
-0.048026
-0.0480291
-0.048032
-0.0480366
-0.0480443
-0.0480396
-0.0477877
-0.0426399
-0.0314876
-0.0158778
-0.00439719
-0.000522663
-1.52783e-05
-0.0480282
-0.048031
-0.0480366
-0.0480447
-0.0480553
-0.048068
-0.0480825
-0.0480983
-0.0481147
-0.048131
-0.0481468
-0.0481616
-0.0481738
-0.0481883
-0.0482011
-0.0481416
-0.0478569
-0.0475597
-0.0472765
-0.0470116
-0.0467415
-0.0465101
-0.0463265
-0.0462058
-0.0461567
-0.046182
-0.046282
-0.0464526
-0.0466854
-0.046968
-0.0472842
-0.0475984
-0.0479915
-0.0480551
-0.0480517
-0.0480468
-0.0480445
-0.0480431
-0.0480436
-0.0480482
-0.0480431
-0.0480359
-0.0430968
-0.0320563
-0.0163192
-0.00455298
-0.000542685
-1.58664e-05
-0.04803
-0.0480336
-0.0480404
-0.0480505
-0.0480636
-0.0480796
-0.048098
-0.0481181
-0.0481391
-0.0481598
-0.0481795
-0.0481982
-0.0482139
-0.0481897
-0.0478844
-0.0475696
-0.0472634
-0.0469593
-0.0466374
-0.0463387
-0.0460723
-0.0458617
-0.0457178
-0.0456493
-0.0456602
-0.0457503
-0.0459169
-0.0461546
-0.0464526
-0.0467965
-0.0471657
-0.0475302
-0.0479365
-0.0480883
-0.0480783
-0.0480669
-0.0480585
-0.0480525
-0.0480494
-0.0480509
-0.0480461
-0.0480384
-0.0434808
-0.0325327
-0.0166991
-0.00468892
-0.000560225
-1.63815e-05
-0.0480329
-0.0480372
-0.0480456
-0.0480581
-0.0480743
-0.0480943
-0.0481174
-0.048143
-0.0481694
-0.0481948
-0.0482201
-0.048239
-0.0480048
-0.0476563
-0.0473194
-0.0469789
-0.0466112
-0.0462525
-0.0459125
-0.0456161
-0.0453778
-0.045212
-0.0451261
-0.0451235
-0.045205
-0.045368
-0.045608
-0.0459169
-0.046282
-0.0466863
-0.0471072
-0.0475135
-0.0479604
-0.0481173
-0.0480998
-0.0480826
-0.048069
-0.0480592
-0.0480534
-0.0480525
-0.0480479
-0.0480406
-0.0438022
-0.0329316
-0.0170219
-0.00480563
-0.000575343
-1.68255e-05
-0.0480367
-0.0480419
-0.0480522
-0.0480674
-0.0480875
-0.0481124
-0.0481414
-0.0481734
-0.0482064
-0.0482381
-0.0482397
-0.047852
-0.0474746
-0.0470949
-0.0466789
-0.0462625
-0.0458526
-0.0454738
-0.0451428
-0.0448775
-0.0446894
-0.0445866
-0.0445726
-0.0446472
-0.0448079
-0.0450505
-0.045368
-0.0457503
-0.046182
-0.0466445
-0.0471138
-0.0475572
-0.0480447
-0.0481364
-0.0481133
-0.048092
-0.0480752
-0.0480631
-0.0480558
-0.0480535
-0.048049
-0.0480424
-0.0440696
-0.0332648
-0.0172936
-0.00490452
-0.000588176
-1.72023e-05
-0.0480411
-0.0480474
-0.0480599
-0.0480786
-0.0481033
-0.0481342
-0.0481703
-0.04821
-0.0482494
-0.0481861
-0.0477439
-0.0473185
-0.0468668
-0.0463925
-0.0459116
-0.0454502
-0.0450252
-0.0446571
-0.0443612
-0.0441501
-0.044031
-0.0440064
-0.0440757
-0.0442356
-0.0444818
-0.0448079
-0.045205
-0.0456602
-0.0461567
-0.0466737
-0.047186
-0.0476725
-0.0481621
-0.048143
-0.0481183
-0.0480951
-0.0480774
-0.0480646
-0.0480568
-0.0480538
-0.0480497
-0.0480437
-0.0442907
-0.0335425
-0.0175217
-0.0049878
-0.000598983
-1.75193e-05
-0.0480456
-0.0480533
-0.0480685
-0.0480913
-0.0481217
-0.0481597
-0.0482043
-0.048251
-0.0481634
-0.0476751
-0.0471937
-0.0466629
-0.046117
-0.0455721
-0.0450498
-0.0445735
-0.0441619
-0.043832
-0.0435956
-0.0434589
-0.0434238
-0.0434884
-0.0436489
-0.0439001
-0.0442356
-0.0446472
-0.0451235
-0.0456493
-0.0462058
-0.0467684
-0.0473055
-0.0478427
-0.0481701
-0.0481423
-0.0481171
-0.0480941
-0.0480767
-0.0480644
-0.0480569
-0.0480536
-0.0480501
-0.0480448
-0.0444723
-0.0337742
-0.0177136
-0.00505805
-0.00060809
-1.77861e-05
-0.0480495
-0.0480588
-0.0480772
-0.0481051
-0.0481423
-0.0481889
-0.0482411
-0.0481585
-0.0476243
-0.0470837
-0.0464866
-0.0458642
-0.0452475
-0.0446593
-0.0441235
-0.0436626
-0.0432935
-0.0430277
-0.0428709
-0.0428237
-0.0428836
-0.0430453
-0.0433027
-0.0436489
-0.0440757
-0.0445726
-0.0451261
-0.0457178
-0.0463265
-0.046924
-0.0474754
-0.0480433
-0.0481688
-0.0481386
-0.0481125
-0.0480907
-0.0480745
-0.0480632
-0.0480564
-0.0480532
-0.0480503
-0.0480456
-0.0446202
-0.0339685
-0.0178764
-0.00511788
-0.000615839
-1.80127e-05
-0.0480514
-0.0480626
-0.0480851
-0.0481191
-0.0481641
-0.0482184
-0.0481491
-0.0475793
-0.0469916
-0.0463314
-0.0456374
-0.0449443
-0.0442832
-0.0436819
-0.0431647
-0.04275
-0.0424495
-0.0422684
-0.0422067
-0.0422603
-0.0424229
-0.0426872
-0.0430453
-0.0434884
-0.0440064
-0.0445866
-0.045212
-0.0458617
-0.0465101
-0.0471243
-0.0476987
-0.0481846
-0.0481581
-0.0481304
-0.0481054
-0.0480858
-0.0480714
-0.0480615
-0.0480556
-0.0480527
-0.0480504
-0.0480463
-0.0447403
-0.0341332
-0.0180166
-0.00516971
-0.000622551
-1.82088e-05
-0.048049
-0.0480626
-0.04809
-0.0481307
-0.0481827
-0.0481038
-0.0475197
-0.046904
-0.0461922
-0.0454318
-0.0446644
-0.0439268
-0.0432538
-0.0426735
-0.0422063
-0.0418647
-0.0416542
-0.041574
-0.0416189
-0.0417812
-0.0420523
-0.0424229
-0.0428836
-0.0434238
-0.044031
-0.0446894
-0.0453778
-0.0460723
-0.0467415
-0.0473447
-0.0479465
-0.0481795
-0.0481466
-0.0481205
-0.0480977
-0.0480805
-0.0480681
-0.0480597
-0.0480547
-0.0480522
-0.0480503
-0.0480469
-0.0448381
-0.0342751
-0.01814
-0.00521565
-0.000628506
-1.83825e-05
-0.0480383
-0.0480541
-0.0480865
-0.0481332
-0.0479817
-0.0474175
-0.0467992
-0.0460546
-0.0452394
-0.0444031
-0.0435903
-0.0428425
-0.0421933
-0.0416668
-0.0412776
-0.0410316
-0.040928
-0.0409607
-0.0411208
-0.0413978
-0.0417812
-0.0422603
-0.0428237
-0.0434589
-0.0441502
-0.0448775
-0.0456161
-0.0463388
-0.0470116
-0.0476043
-0.0481909
-0.0481649
-0.0481357
-0.0481104
-0.0480904
-0.0480755
-0.048065
-0.048058
-0.0480538
-0.0480516
-0.0480502
-0.0480473
-0.0449198
-0.0344021
-0.0182529
-0.00525792
-0.000633904
-1.85407e-05
-0.0480099
-0.0480293
-0.0480636
-0.0477387
-0.0472401
-0.0466473
-0.045895
-0.0450438
-0.0441508
-0.0432685
-0.0424467
-0.0417256
-0.0411345
-0.0406913
-0.0404039
-0.0402717
-0.0402882
-0.0404432
-0.0407248
-0.0411208
-0.0416189
-0.0422067
-0.0428709
-0.0435956
-0.0443612
-0.0451428
-0.0459125
-0.0466374
-0.0472765
-0.0478852
-0.048184
-0.0481498
-0.0481239
-0.0481012
-0.0480838
-0.0480712
-0.0480623
-0.0480565
-0.0480531
-0.0480511
-0.0480501
-0.0480477
-0.0449894
-0.0345169
-0.0183571
-0.00529723
-0.000638928
-1.8688e-05
-0.0478037
-0.0476515
-0.0473585
-0.0469589
-0.0464125
-0.0456806
-0.0448187
-0.043888
-0.0429487
-0.0420588
-0.0412669
-0.0406087
-0.0401072
-0.0397731
-0.0396074
-0.0396036
-0.0397507
-0.0400352
-0.0404432
-0.0409607
-0.041574
-0.0422684
-0.0430277
-0.043832
-0.0446571
-0.0454738
-0.0462525
-0.0469593
-0.0475597
-0.0481563
-0.0481701
-0.0481391
-0.0481137
-0.0480936
-0.0480785
-0.0480676
-0.0480601
-0.0480553
-0.0480524
-0.0480507
-0.04805
-0.0480479
-0.0450466
-0.0346198
-0.0184531
-0.00533398
-0.000643662
-1.88268e-05
-0.0470061
-0.0468581
-0.0465599
-0.0460561
-0.0453696
-0.0445265
-0.0435842
-0.0426075
-0.0416626
-0.0408066
-0.0400833
-0.0395222
-0.0391384
-0.0389357
-0.0389083
-0.039045
-0.039331
-0.0397507
-0.0402882
-0.040928
-0.0416543
-0.0424495
-0.0432935
-0.0441619
-0.0450252
-0.0458526
-0.0466112
-0.0472634
-0.047857
-0.0481901
-0.0481551
-0.0481281
-0.0481049
-0.0480872
-0.048074
-0.0480647
-0.0480584
-0.0480543
-0.0480519
-0.0480503
-0.0480499
-0.0480481
-0.0450931
-0.0347122
-0.0185417
-0.00536832
-0.000648123
-1.89576e-05
-0.0461445
-0.0459349
-0.0455249
-0.0449084
-0.0441164
-0.0431945
-0.042208
-0.041229
-0.0403231
-0.039543
-0.0389258
-0.0384932
-0.0382525
-0.0382005
-0.0383259
-0.0386132
-0.039045
-0.0396036
-0.0402717
-0.0410316
-0.0418648
-0.04275
-0.0436626
-0.0445735
-0.0454502
-0.0462625
-0.0469789
-0.0475696
-0.0481416
-0.0481777
-0.0481449
-0.0481187
-0.0480978
-0.048082
-0.0480705
-0.0480624
-0.0480569
-0.0480534
-0.0480514
-0.04805
-0.0480498
-0.0480483
-0.0451302
-0.034794
-0.0186223
-0.00539996
-0.000652258
-1.90789e-05
-0.0449695
-0.0447113
-0.044219
-0.0435179
-0.0426554
-0.0416952
-0.0407123
-0.0397797
-0.0389591
-0.0382966
-0.0378215
-0.0375468
-0.0374725
-0.0375887
-0.0378794
-0.0383259
-0.0389083
-0.0396074
-0.0404039
-0.0412776
-0.0422063
-0.0431647
-0.0441235
-0.0450499
-0.0459116
-0.046679
-0.0473194
-0.0478844
-0.0482011
-0.048164
-0.0481349
-0.0481106
-0.0480918
-0.0480777
-0.0480675
-0.0480604
-0.0480557
-0.0480527
-0.048051
-0.0480496
-0.0480496
-0.0480484
-0.0451582
-0.0348644
-0.0186935
-0.00542824
-0.000655972
-1.9188e-05
-0.0434701
-0.0431756
-0.0426279
-0.0418766
-0.0409893
-0.0400435
-0.0391182
-0.0382839
-0.0375962
-0.0370932
-0.0367953
-0.0367072
-0.0368213
-0.0371218
-0.0375887
-0.0382005
-0.0389357
-0.0397732
-0.0406913
-0.0416668
-0.0426735
-0.0436819
-0.0446593
-0.0455721
-0.0463925
-0.0470949
-0.0476563
-0.0481897
-0.0481883
-0.0481535
-0.0481257
-0.0481036
-0.0480866
-0.048074
-0.048065
-0.0480587
-0.0480546
-0.048052
-0.0480506
-0.0480493
-0.0480494
-0.0480485
-0.0451767
-0.0349216
-0.0187533
-0.00545225
-0.000659132
-1.92808e-05
-0.0416097
-0.0412973
-0.0407294
-0.0399774
-0.0391233
-0.0382524
-0.0374436
-0.0367626
-0.0362575
-0.0359571
-0.0358723
-0.035999
-0.0363223
-0.0368213
-0.0374725
-0.0382525
-0.0391384
-0.0401072
-0.0411345
-0.0421933
-0.0432539
-0.0442832
-0.0452475
-0.046117
-0.0468668
-0.0474746
-0.0480048
-0.0482139
-0.0481738
-0.0481427
-0.048117
-0.048097
-0.0480818
-0.0480706
-0.0480626
-0.0480571
-0.0480535
-0.0480514
-0.0480501
-0.0480489
-0.0480493
-0.0480486
-0.0451851
-0.0349637
-0.0187994
-0.00547099
-0.000661595
-1.93532e-05
-0.0393516
-0.0390478
-0.0385074
-0.0378148
-0.0370603
-0.0363311
-0.0357031
-0.0352351
-0.0349657
-0.0349134
-0.0350786
-0.0354477
-0.035999
-0.0367072
-0.0375468
-0.0384932
-0.0395222
-0.0406088
-0.0417256
-0.0428425
-0.0439268
-0.0449443
-0.0458642
-0.0466629
-0.0473185
-0.0478521
-0.0482389
-0.0481982
-0.0481616
-0.0481321
-0.0481087
-0.0480907
-0.0480772
-0.0480673
-0.0480602
-0.0480554
-0.0480524
-0.0480506
-0.0480496
-0.0480485
-0.048049
-0.0480487
-0.0451825
-0.0349885
-0.0188296
-0.00548346
-0.000663221
-1.9401e-05
-0.0366675
-0.036404
-0.0359467
-0.0353823
-0.0348013
-0.034288
-0.0339117
-0.0337221
-0.0337464
-0.0339903
-0.034442
-0.0350786
-0.0358723
-0.0367953
-0.0378215
-0.0389258
-0.0400833
-0.0412669
-0.0424467
-0.0435903
-0.0446644
-0.0456374
-0.0464866
-0.0471937
-0.0477439
-0.0482397
-0.0482201
-0.0481795
-0.0481468
-0.0481205
-0.0480999
-0.0480841
-0.0480722
-0.0480637
-0.0480576
-0.0480536
-0.0480511
-0.0480498
-0.0480491
-0.048048
-0.0480488
-0.0480487
-0.0451679
-0.0349943
-0.018842
-0.00548895
-0.000663907
-1.94212e-05
-0.0335356
-0.033349
-0.0330371
-0.0326774
-0.0323519
-0.0321365
-0.0320908
-0.0322517
-0.0326311
-0.033219
-0.0339903
-0.0349134
-0.0359571
-0.0370932
-0.0382966
-0.039543
-0.0408066
-0.0420588
-0.0432686
-0.0444032
-0.0454318
-0.0463314
-0.0470837
-0.0476751
-0.0481861
-0.0482381
-0.0481948
-0.0481598
-0.048131
-0.0481082
-0.0480905
-0.048077
-0.048067
-0.0480598
-0.0480548
-0.0480516
-0.0480498
-0.0480489
-0.0480485
-0.0480475
-0.0480486
-0.0480487
-0.0451412
-0.0349805
-0.018836
-0.00548712
-0.000663605
-1.94124e-05
-0.0299543
-0.029884
-0.029785
-0.0297127
-0.0297322
-0.0299051
-0.0302756
-0.0308624
-0.0316571
-0.0326311
-0.0337464
-0.0349657
-0.0362575
-0.0375962
-0.0389591
-0.0403231
-0.0416626
-0.0429487
-0.0441508
-0.0452394
-0.0461922
-0.0469916
-0.0476243
-0.0481634
-0.0482494
-0.0482064
-0.0481694
-0.0481391
-0.0481147
-0.0480956
-0.0480808
-0.0480696
-0.0480615
-0.0480557
-0.0480519
-0.0480495
-0.0480483
-0.0480479
-0.0480478
-0.048047
-0.0480483
-0.0480487
-0.0451025
-0.0349476
-0.018812
-0.00547811
-0.000662337
-1.9375e-05
-0.0259579
-0.0260445
-0.0262278
-0.02653
-0.0269894
-0.0276452
-0.0285184
-0.029602
-0.0308624
-0.0322517
-0.0337221
-0.0352351
-0.0367626
-0.0382838
-0.0397797
-0.041229
-0.0426075
-0.043888
-0.0450438
-0.0460546
-0.046904
-0.0475793
-0.0481585
-0.048251
-0.04821
-0.0481734
-0.048143
-0.0481181
-0.0480983
-0.0480828
-0.048071
-0.0480621
-0.0480558
-0.0480515
-0.0480488
-0.0480473
-0.0480467
-0.0480469
-0.0480471
-0.0480464
-0.0480481
-0.0480488
-0.0450532
-0.0348974
-0.0187718
-0.00546265
-0.0006602
-1.93121e-05
-0.0216316
-0.0219141
-0.022448
-0.0232106
-0.0242032
-0.0254315
-0.0268833
-0.0285184
-0.0302756
-0.0320908
-0.0339117
-0.0357031
-0.0374436
-0.0391182
-0.0407123
-0.042208
-0.0435842
-0.0448187
-0.045895
-0.0467992
-0.0475197
-0.0481491
-0.0482411
-0.0482043
-0.0481703
-0.0481414
-0.0481174
-0.048098
-0.0480825
-0.0480705
-0.0480614
-0.0480548
-0.0480502
-0.0480473
-0.0480457
-0.0480451
-0.0480452
-0.0480458
-0.0480464
-0.0480458
-0.0480478
-0.0480488
-0.0449952
-0.0348331
-0.0187183
-0.00544197
-0.000657365
-1.92286e-05
-0.0171196
-0.0176322
-0.0185765
-0.0198753
-0.0214799
-0.0233504
-0.0254315
-0.0276451
-0.0299051
-0.0321365
-0.034288
-0.0363311
-0.0382524
-0.0400435
-0.0416952
-0.0431945
-0.0445265
-0.0456806
-0.0466473
-0.0474175
-0.0481038
-0.0482184
-0.0481889
-0.0481597
-0.0481342
-0.0481124
-0.0480943
-0.0480796
-0.048068
-0.048059
-0.0480525
-0.0480479
-0.0480449
-0.0480433
-0.0480428
-0.048043
-0.0480437
-0.0480448
-0.0480457
-0.0480453
-0.0480476
-0.0480488
-0.0449318
-0.0347594
-0.018656
-0.00541781
-0.00065407
-1.91315e-05
-0.0126232
-0.0133893
-0.0147853
-0.0166701
-0.0189338
-0.0214798
-0.0242031
-0.0269894
-0.0297322
-0.0323519
-0.0348013
-0.0370603
-0.0391233
-0.0409893
-0.0426554
-0.0441164
-0.0453696
-0.0464125
-0.0472401
-0.0479817
-0.0481827
-0.0481641
-0.0481423
-0.0481217
-0.0481033
-0.0480875
-0.0480743
-0.0480636
-0.0480553
-0.048049
-0.0480445
-0.0480417
-0.0480402
-0.0480398
-0.0480401
-0.048041
-0.0480424
-0.0480439
-0.0480451
-0.0480448
-0.0480473
-0.0480487
-0.044867
-0.0346821
-0.01859
-0.00539226
-0.000650597
-1.90292e-05
-0.00839344
-0.0094173
-0.0112722
-0.0137493
-0.0166701
-0.0198753
-0.0232106
-0.0265299
-0.0297127
-0.0326773
-0.0353823
-0.0378148
-0.0399774
-0.0418766
-0.0435179
-0.0449084
-0.0460561
-0.0469589
-0.0477387
-0.0481332
-0.0481307
-0.0481191
-0.0481051
-0.0480913
-0.0480786
-0.0480674
-0.0480581
-0.0480505
-0.0480447
-0.0480406
-0.0480379
-0.0480365
-0.0480362
-0.0480367
-0.0480379
-0.0480394
-0.0480412
-0.0480431
-0.0480445
-0.0480443
-0.0480472
-0.0480487
-0.0448054
-0.0346075
-0.0185263
-0.0053676
-0.000647256
-1.89307e-05
-0.00472404
-0.00598243
-0.00825613
-0.0112722
-0.0147852
-0.0185765
-0.022448
-0.0262278
-0.029785
-0.0330371
-0.0359467
-0.0385074
-0.0407294
-0.0426279
-0.044219
-0.0455249
-0.0465599
-0.0473585
-0.0480636
-0.0480865
-0.04809
-0.0480851
-0.0480772
-0.0480685
-0.0480599
-0.0480522
-0.0480456
-0.0480404
-0.0480366
-0.0480341
-0.0480328
-0.0480325
-0.0480331
-0.0480344
-0.0480361
-0.0480381
-0.0480403
-0.0480425
-0.0480441
-0.048044
-0.048047
-0.0480487
-0.044752
-0.0345426
-0.0184708
-0.00534618
-0.000644361
-1.88454e-05
-0.00194475
-0.00338387
-0.00598243
-0.0094173
-0.0133893
-0.0176322
-0.0219141
-0.0260444
-0.029884
-0.0333489
-0.036404
-0.0390478
-0.0412973
-0.0431756
-0.0447113
-0.0459349
-0.0468581
-0.0476514
-0.0480293
-0.0480541
-0.0480626
-0.0480626
-0.0480588
-0.0480533
-0.0480474
-0.0480419
-0.0480372
-0.0480336
-0.048031
-0.0480296
-0.0480292
-0.0480297
-0.048031
-0.0480328
-0.0480349
-0.0480372
-0.0480396
-0.048042
-0.0480438
-0.0480437
-0.0480469
-0.0480487
-0.0447121
-0.0344941
-0.0184295
-0.00533026
-0.000642214
-1.87821e-05
-0.000405816
-0.00194475
-0.00472404
-0.00839344
-0.0126231
-0.0171195
-0.0216316
-0.0259579
-0.0299543
-0.0335356
-0.0366675
-0.0393516
-0.0416097
-0.0434701
-0.0449695
-0.0461445
-0.0470061
-0.0478036
-0.0480099
-0.0480383
-0.048049
-0.0480514
-0.0480495
-0.0480456
-0.0480411
-0.0480367
-0.0480329
-0.04803
-0.0480282
-0.0480273
-0.0480274
-0.0480283
-0.0480299
-0.0480319
-0.0480343
-0.0480368
-0.0480393
-0.0480418
-0.0480436
-0.0480436
-0.0480468
-0.0480487
-0.0446904
-0.0344675
-0.0184068
-0.00532155
-0.000641044
-1.87476e-05
)
;

boundaryField
{
    inlet
    {
        type            cyclic;
    }
    outlet
    {
        type            cyclic;
    }
    walls
    {
        type            calculated;
        value           nonuniform List<scalar> 
96
(
-4.61161e-08
-2.02202e-07
-4.94129e-07
-9.17654e-07
-1.47548e-06
-2.17201e-06
-3.01047e-06
-3.98863e-06
-5.09229e-06
-6.29073e-06
-7.54035e-06
-8.79384e-06
-1.00092e-05
-1.11551e-05
-1.22125e-05
-1.31723e-05
-1.40329e-05
-1.47973e-05
-1.54714e-05
-1.60639e-05
-1.65828e-05
-1.70299e-05
-1.74094e-05
-1.77285e-05
-1.79968e-05
-1.82247e-05
-1.84217e-05
-1.85963e-05
-1.87552e-05
-1.89031e-05
-1.90425e-05
-1.91739e-05
-1.92958e-05
-1.94053e-05
-1.94985e-05
-1.95712e-05
-1.96191e-05
-1.96393e-05
-1.96302e-05
-1.95924e-05
-1.95288e-05
-1.94445e-05
-1.93466e-05
-1.92434e-05
-1.91441e-05
-1.90581e-05
-1.89942e-05
-1.89595e-05
-1.89594e-05
-1.89942e-05
-1.90581e-05
-1.91441e-05
-1.92434e-05
-1.93466e-05
-1.94446e-05
-1.95288e-05
-1.95924e-05
-1.96302e-05
-1.96393e-05
-1.96192e-05
-1.95712e-05
-1.94985e-05
-1.94053e-05
-1.92958e-05
-1.9174e-05
-1.90426e-05
-1.89032e-05
-1.87552e-05
-1.85963e-05
-1.84217e-05
-1.82247e-05
-1.79968e-05
-1.77285e-05
-1.74094e-05
-1.703e-05
-1.65828e-05
-1.6064e-05
-1.54714e-05
-1.47973e-05
-1.40329e-05
-1.31723e-05
-1.22125e-05
-1.11552e-05
-1.00092e-05
-8.79384e-06
-7.54036e-06
-6.29074e-06
-5.09229e-06
-3.98864e-06
-3.01047e-06
-2.17201e-06
-1.47548e-06
-9.17654e-07
-4.9413e-07
-2.02202e-07
-4.61161e-08
)
;
    }
    symPlanes
    {
        type            symmetry;
    }
}


// ************************************************************************* //
