/*--------------------------------*- C++ -*----------------------------------*\
| =========                 |                                                 |
| \\      /  F ield         | OpenFOAM: The Open Source CFD Toolbox           |
|  \\    /   O peration     | Version:  2412                                  |
|   \\  /    A nd           | Website:  www.openfoam.com                      |
|    \\/     M anipulation  |                                                 |
\*---------------------------------------------------------------------------*/
FoamFile
{
    version     2.0;
    format      ascii;
    arch        "LSB;label=32;scalar=64";
    class       volScalarField;
    location    "1830";
    object      I3;
}
// * * * * * * * * * * * * * * * * * * * * * * * * * * * * * * * * * * * * * //

dimensions      [0 0 0 0 0 0 0];

internalField   nonuniform List<scalar> 
2304
(
1.06415e-10
1.06155e-10
1.05389e-10
1.04193e-10
1.02685e-10
1.009e-10
9.89356e-11
9.6867e-11
9.47967e-11
9.28012e-11
9.09444e-11
8.92494e-11
8.76984e-11
8.62479e-11
8.4734e-11
8.30644e-11
8.10249e-11
7.84931e-11
7.52251e-11
7.1126e-11
6.606e-11
6.00135e-11
5.28908e-11
4.47917e-11
3.59509e-11
2.67699e-11
1.7865e-11
9.61478e-12
1.41397e-12
-1.03062e-11
-2.38226e-11
-3.69084e-11
-4.85385e-11
-5.75217e-11
-6.22319e-11
-6.0974e-11
-5.27546e-11
-3.82319e-11
-2.03599e-11
-3.85135e-12
6.38054e-12
8.47972e-12
5.80327e-12
2.66676e-12
8.36946e-13
1.55435e-13
1.15746e-14
4.21872e-16
-1.82857e-08
-1.90615e-08
-1.97999e-08
-2.08868e-08
-2.22196e-08
-2.3703e-08
-2.52257e-08
-2.66831e-08
-2.79738e-08
-2.90182e-08
-2.97623e-08
-3.01886e-08
-3.03134e-08
-3.01853e-08
-2.99037e-08
-2.95549e-08
-2.92583e-08
-2.91047e-08
-2.92057e-08
-2.96171e-08
-3.03847e-08
-3.14933e-08
-3.29231e-08
-3.45773e-08
-3.62968e-08
-3.78581e-08
-3.89761e-08
-3.94737e-08
-3.96772e-08
-4.07819e-08
-4.22576e-08
-4.32993e-08
-4.35528e-08
-4.2653e-08
-4.01101e-08
-3.54635e-08
-2.85681e-08
-1.99093e-08
-1.07588e-08
-2.90783e-09
1.92749e-09
3.21998e-09
2.37306e-09
1.17078e-09
4.10946e-10
9.30588e-11
7.1006e-12
1.15755e-14
-8.98531e-07
-9.1691e-07
-9.37043e-07
-9.67017e-07
-1.00449e-06
-1.04722e-06
-1.09263e-06
-1.13823e-06
-1.18152e-06
-1.22047e-06
-1.25358e-06
-1.28028e-06
-1.3008e-06
-1.3163e-06
-1.32943e-06
-1.34258e-06
-1.35916e-06
-1.38194e-06
-1.41434e-06
-1.45825e-06
-1.51496e-06
-1.58441e-06
-1.66603e-06
-1.75667e-06
-1.85107e-06
-1.9418e-06
-2.01887e-06
-2.07393e-06
-2.1116e-06
-2.16223e-06
-2.20879e-06
-2.22577e-06
-2.20055e-06
-2.11978e-06
-1.96695e-06
-1.72826e-06
-1.4024e-06
-1.01043e-06
-6.00261e-07
-2.3679e-07
1.17258e-08
1.082e-07
9.65531e-08
5.30109e-08
1.93377e-08
3.28319e-09
9.30589e-11
1.55438e-13
1.86008e-05
1.86909e-05
1.86643e-05
1.86142e-05
1.85348e-05
1.84181e-05
1.82581e-05
1.80513e-05
1.77975e-05
1.74984e-05
1.71571e-05
1.67753e-05
1.63534e-05
1.58881e-05
1.53678e-05
1.47817e-05
1.4111e-05
1.33382e-05
1.24386e-05
1.1395e-05
1.0193e-05
8.82255e-06
7.26951e-06
5.53849e-06
3.64764e-06
1.62943e-06
-4.60277e-07
-2.54943e-06
-4.58559e-06
-6.6289e-06
-8.59522e-06
-1.03586e-05
-1.18192e-05
-1.28384e-05
-1.32407e-05
-1.28609e-05
-1.16081e-05
-9.5222e-06
-6.79966e-06
-3.73409e-06
-9.03521e-07
7.48033e-07
1.03987e-06
6.31988e-07
1.91259e-07
1.93377e-08
4.10946e-10
8.36952e-13
8.75607e-05
8.75828e-05
8.68162e-05
8.57458e-05
8.44344e-05
8.29379e-05
8.13163e-05
7.963e-05
7.7937e-05
7.62854e-05
7.47076e-05
7.32139e-05
7.17954e-05
7.04199e-05
6.90221e-05
6.75415e-05
6.58961e-05
6.40198e-05
6.18356e-05
5.92931e-05
5.63037e-05
5.28772e-05
4.90351e-05
4.48211e-05
4.02989e-05
3.55366e-05
3.06311e-05
2.57168e-05
2.0868e-05
1.4159e-05
6.90301e-06
2.79794e-07
-5.45652e-06
-9.99099e-06
-1.30845e-05
-1.4759e-05
-1.53887e-05
-1.55232e-05
-1.53341e-05
-1.30604e-05
-6.32202e-06
8.68914e-07
3.71487e-06
2.48147e-06
6.31988e-07
5.30109e-08
1.17078e-09
2.66677e-12
9.46599e-06
8.24288e-06
6.2118e-06
3.35917e-06
-1.06887e-07
-3.98546e-06
-8.07417e-06
-1.21797e-05
-1.61291e-05
-1.97837e-05
-2.30512e-05
-2.58963e-05
-2.83303e-05
-3.0416e-05
-3.22864e-05
-3.40629e-05
-3.5906e-05
-3.7938e-05
-4.02957e-05
-4.30578e-05
-4.63929e-05
-5.02595e-05
-5.45488e-05
-5.91302e-05
-6.38562e-05
-6.86286e-05
-7.33881e-05
-7.81111e-05
-8.21814e-05
-8.4144e-05
-8.4362e-05
-8.3325e-05
-8.09986e-05
-7.75197e-05
-7.32888e-05
-6.88777e-05
-6.47208e-05
-6.07862e-05
-5.73358e-05
-5.13175e-05
-3.21683e-05
-8.03116e-06
3.94418e-06
3.71487e-06
1.03987e-06
9.6553e-08
2.37306e-09
5.80328e-12
-4.31379e-05
-4.44664e-05
-4.53417e-05
-4.67325e-05
-4.86001e-05
-5.09125e-05
-5.36208e-05
-5.66602e-05
-5.99524e-05
-6.34174e-05
-6.69864e-05
-7.06207e-05
-7.43048e-05
-7.80676e-05
-8.20213e-05
-8.62737e-05
-9.10089e-05
-9.64008e-05
-0.000102695
-0.000110077
-0.000118765
-0.000128952
-0.000140852
-0.000154609
-0.000170364
-0.000188361
-0.00020891
-0.000232385
-0.000257761
-0.000269413
-0.000274009
-0.000279092
-0.000285026
-0.000291681
-0.000298521
-0.000304148
-0.000305958
-0.000299943
-0.000283979
-0.000251324
-0.000161599
-5.8471e-05
-8.03116e-06
8.68908e-07
7.48031e-07
1.082e-07
3.21998e-09
8.47974e-12
9.34885e-05
9.2468e-05
9.10835e-05
8.89944e-05
8.62436e-05
8.2862e-05
7.88982e-05
7.44239e-05
6.95303e-05
6.43148e-05
5.88638e-05
5.32289e-05
4.7436e-05
4.14575e-05
3.51592e-05
2.84115e-05
2.09801e-05
1.26352e-05
3.03438e-06
-8.10267e-06
-2.11468e-05
-3.63956e-05
-5.42737e-05
-7.51129e-05
-9.92352e-05
-0.00012705
-0.000158813
-0.000194517
-0.000233753
-0.000274324
-0.000316379
-0.000359881
-0.000402533
-0.000440451
-0.000469092
-0.00048459
-0.000485733
-0.000474348
-0.000459848
-0.000473688
-0.000383876
-0.000161599
-3.21682e-05
-6.32202e-06
-9.03523e-07
1.17256e-08
1.92748e-09
6.38055e-12
0.000147964
0.000146784
0.000143872
0.000139712
0.000134467
0.000128286
0.000121325
0.000113757
0.000105762
9.75089e-05
8.91322e-05
8.07023e-05
7.22447e-05
6.37062e-05
5.48833e-05
4.55826e-05
3.54684e-05
2.422e-05
1.13626e-05
-3.48349e-06
-2.09265e-05
-4.13541e-05
-6.53246e-05
-9.32696e-05
-0.000125517
-0.000162378
-0.000203574
-0.000248102
-0.000294267
-0.000346315
-0.000399291
-0.000446843
-0.000484088
-0.000505953
-0.000509071
-0.000494097
-0.000467318
-0.000438094
-0.000410505
-0.000443119
-0.000473688
-0.000251323
-5.13174e-05
-1.30604e-05
-3.73409e-06
-2.3679e-07
-2.90783e-09
-3.85132e-12
0.000130552
0.000129175
0.000126115
0.000121677
0.000115969
0.000109096
0.000101175
9.23554e-05
8.28113e-05
7.27176e-05
6.22203e-05
5.13916e-05
4.02584e-05
2.87498e-05
1.65907e-05
3.51721e-06
-1.09439e-05
-2.72522e-05
-4.60962e-05
-6.80245e-05
-9.39275e-05
-0.000124374
-0.000160158
-0.000201772
-0.00024934
-0.000302756
-0.000360687
-0.000420703
-0.000479508
-0.000532956
-0.000574783
-0.000599138
-0.00060175
-0.000581037
-0.000540266
-0.000488602
-0.000440043
-0.000406069
-0.00038742
-0.000410505
-0.000459848
-0.000283978
-5.73357e-05
-1.53341e-05
-6.79966e-06
-6.00261e-07
-1.07588e-08
-2.03598e-11
0.000144881
0.000143086
0.000139681
0.00013468
0.00012815
0.000120158
0.000110798
0.000100205
8.85543e-05
7.60294e-05
6.27837e-05
4.8877e-05
3.43201e-05
1.90011e-05
2.53015e-06
-1.54554e-05
-3.56114e-05
-5.85523e-05
-8.52138e-05
-0.000116298
-0.000152971
-0.000195796
-0.000245598
-0.000302472
-0.000365689
-0.000434069
-0.000504426
-0.000572132
-0.000631772
-0.00067737
-0.000700638
-0.000695883
-0.000662467
-0.000605531
-0.000536349
-0.000470627
-0.000425199
-0.000408391
-0.000406069
-0.000438094
-0.000474348
-0.000299942
-6.07861e-05
-1.55232e-05
-9.5222e-06
-1.01043e-06
-1.99092e-08
-3.82318e-11
0.000166805
0.000164713
0.000160739
0.000154867
0.000147138
0.000137591
0.000126296
0.000113378
9.90097e-05
8.3378e-05
6.66282e-05
4.87812e-05
2.98055e-05
9.51827e-06
-1.26401e-05
-3.71564e-05
-6.4915e-05
-9.66762e-05
-0.000133647
-0.000176537
-0.000226713
-0.000284309
-0.000349742
-0.000422017
-0.000498605
-0.00057653
-0.00065026
-0.000712826
-0.000756772
-0.000775447
-0.000762833
-0.000718446
-0.000648986
-0.000567513
-0.000491057
-0.000436247
-0.000414213
-0.000425199
-0.000440043
-0.000467319
-0.000485733
-0.000305958
-6.47207e-05
-1.53887e-05
-1.16081e-05
-1.4024e-06
-2.85681e-08
-5.27545e-11
0.000185979
0.000183588
0.000178949
0.000172065
0.000162948
0.000151601
0.000138062
0.000122435
0.000104876
8.55554e-05
6.45868e-05
4.19152e-05
1.74391e-05
-9.12407e-06
-3.856e-05
-7.1485e-05
-0.000109036
-0.000152053
-0.000201972
-0.000259162
-0.000324944
-0.00039828
-0.000478405
-0.000562524
-0.000645471
-0.000721961
-0.000784712
-0.000826046
-0.000838763
-0.000818635
-0.000765083
-0.000685378
-0.000594094
-0.000509641
-0.000449566
-0.000424828
-0.000436247
-0.000470627
-0.000488602
-0.000494097
-0.00048459
-0.000304148
-6.88777e-05
-1.47591e-05
-1.28609e-05
-1.72826e-06
-3.54635e-08
-6.09739e-11
0.000202615
0.000199853
0.000194464
0.000186438
0.000175751
0.00016236
0.000146259
0.000127511
0.000106236
8.25621e-05
5.65403e-05
2.7996e-05
-3.27034e-06
-3.7661e-05
-7.62478e-05
-0.000119737
-0.000169503
-0.000226263
-0.000291487
-0.000364583
-0.000446219
-0.000533381
-0.00062306
-0.000710433
-0.000788338
-0.00085177
-0.000888278
-0.000891811
-0.000860106
-0.0007983
-0.000712505
-0.000614858
-0.000524646
-0.000460861
-0.000435557
-0.000449566
-0.000491058
-0.000536349
-0.000540266
-0.000509071
-0.000469092
-0.00029852
-7.32888e-05
-1.30845e-05
-1.32407e-05
-1.96694e-06
-4.011e-08
-6.22317e-11
0.000217149
0.000213943
0.000207689
0.000198346
0.000185853
0.000170109
0.000151046
0.000128663
0.000103017
7.41645e-05
4.20569e-05
6.35061e-06
-3.32758e-05
-7.7344e-05
-0.000127266
-0.000183671
-0.000248044
-0.000320514
-0.000402114
-0.000490557
-0.000584812
-0.000680565
-0.000776518
-0.00086142
-0.000921887
-0.000949829
-0.000943069
-0.000900687
-0.000825208
-0.000726257
-0.000620737
-0.000530694
-0.000467178
-0.000443025
-0.000460861
-0.000509642
-0.000567513
-0.000605532
-0.000581037
-0.000505953
-0.000440451
-0.000291681
-7.75196e-05
-9.99104e-06
-1.28384e-05
-2.11978e-06
-4.26529e-08
-5.75215e-11
0.000229081
0.00022536
0.000218099
0.000207225
0.000192638
0.000174165
0.000151651
0.000125005
9.41827e-05
5.9136e-05
1.96816e-05
-2.47597e-05
-7.46397e-05
-0.000130516
-0.000194086
-0.000265488
-0.000345936
-0.0004343
-0.000530445
-0.000631518
-0.000741583
-0.000842821
-0.000924482
-0.000979594
-0.00100068
-0.000970794
-0.000908143
-0.000822216
-0.000724834
-0.00062277
-0.000526134
-0.000458192
-0.000441735
-0.000467178
-0.000524647
-0.000594094
-0.000648986
-0.000662468
-0.00060175
-0.000484088
-0.000402533
-0.000285026
-8.09985e-05
-5.45656e-06
-1.18192e-05
-2.20055e-06
-4.35527e-08
-4.85384e-11
0.000237837
0.000233518
0.000225082
0.000212426
0.000195402
0.000173748
0.000147189
0.000115503
7.85084e-05
3.60162e-05
-1.23363e-05
-6.74379e-05
-0.000129735
-0.000199537
-0.000278404
-0.000365468
-0.000461261
-0.000565898
-0.00068326
-0.000796849
-0.000896516
-0.000976144
-0.00100762
-0.000995716
-0.000951206
-0.000875446
-0.000775719
-0.000664005
-0.000557418
-0.000476907
-0.000443289
-0.000430867
-0.000458192
-0.000530694
-0.000614858
-0.000685378
-0.000718446
-0.000695883
-0.000599138
-0.000446843
-0.000359881
-0.000279092
-8.33249e-05
2.79754e-07
-1.03586e-05
-2.22577e-06
-4.32992e-08
-3.69082e-11
0.000242845
0.000237829
0.000228028
0.000213295
0.000193429
0.000168045
0.00013671
9.90246e-05
5.46165e-05
3.10841e-06
-5.60592e-05
-0.000123957
-0.000200504
-0.000285349
-0.000379384
-0.000484506
-0.000604638
-0.000725646
-0.000839354
-0.000939222
-0.000982334
-0.000994706
-0.000973081
-0.000916925
-0.000829338
-0.000721292
-0.000602424
-0.000489948
-0.000402027
-0.000351666
-0.000363789
-0.000443289
-0.000526135
-0.000620737
-0.000712506
-0.000765083
-0.000762833
-0.000700638
-0.000574783
-0.000399291
-0.000316379
-0.000274009
-8.43619e-05
6.90297e-06
-8.59524e-06
-2.20879e-06
-4.22575e-08
-2.38224e-11
0.000243492
0.000237664
0.000226274
0.000209111
0.000185905
0.000156113
0.000119088
7.4192e-05
2.07826e-05
-4.17174e-05
-0.000113812
-0.000195961
-0.000287036
-0.000388621
-0.000509126
-0.000633769
-0.000756405
-0.000866219
-0.000927757
-0.000964127
-0.000967435
-0.000935104
-0.000871454
-0.000778721
-0.000663705
-0.000538007
-0.000418072
-0.000325553
-0.000279693
-0.000292173
-0.000351666
-0.000476907
-0.000622771
-0.000726258
-0.0007983
-0.000818635
-0.000775447
-0.00067737
-0.000532955
-0.000346315
-0.000274324
-0.000269413
-8.41439e-05
1.4159e-05
-6.62892e-06
-2.16223e-06
-4.07818e-08
-1.03061e-11
0.000239163
0.000232386
0.000219135
0.000199104
0.000171937
0.000136876
9.29911e-05
3.93089e-05
-2.51133e-05
-0.000100717
-0.000187104
-0.000283671
-0.00039897
-0.000525132
-0.000652257
-0.000768919
-0.000846293
-0.000903951
-0.000932911
-0.000927303
-0.000892668
-0.000823385
-0.000722984
-0.000598717
-0.000465334
-0.000340652
-0.000243558
-0.000193806
-0.000204693
-0.000279693
-0.000402027
-0.000557418
-0.000724834
-0.000825208
-0.000860106
-0.000838763
-0.000756772
-0.000631772
-0.000479507
-0.000294267
-0.000233753
-0.000257761
-8.21813e-05
2.0868e-05
-4.5856e-06
-2.11159e-06
-3.96771e-08
1.41416e-12
0.00022919
0.000221296
0.000205846
0.000182396
0.000150469
0.000109026
5.67376e-05
-7.76009e-06
-8.52612e-05
-0.000175087
-0.000276947
-0.00040242
-0.000531642
-0.000657871
-0.000744477
-0.000817994
-0.00086916
-0.000891607
-0.000886516
-0.000845507
-0.000768074
-0.000658806
-0.000529517
-0.000392164
-0.000263887
-0.000164099
-0.000111276
-0.000119736
-0.000193806
-0.000325554
-0.000489949
-0.000664006
-0.000822217
-0.000900688
-0.000891811
-0.000826046
-0.000712826
-0.000572131
-0.000420702
-0.000248101
-0.000194517
-0.000232385
-7.81109e-05
2.57168e-05
-2.54945e-06
-2.07393e-06
-3.94735e-08
9.61499e-12
0.000212822
0.000203597
0.000185519
0.000157934
0.000120205
7.08895e-05
8.16359e-06
-6.92906e-05
-0.00016096
-0.000268755
-0.000399657
-0.000531159
-0.000632636
-0.000714827
-0.000781369
-0.000827182
-0.000849952
-0.000838203
-0.000788447
-0.000703334
-0.000591028
-0.000458334
-0.000319206
-0.000189397
-8.79122e-05
-3.31643e-05
-3.90768e-05
-0.000111276
-0.000243559
-0.000418073
-0.000602425
-0.00077572
-0.000908144
-0.000943069
-0.000888278
-0.000784711
-0.000650259
-0.000504426
-0.000360687
-0.000203574
-0.000158813
-0.00020891
-7.33879e-05
3.06311e-05
-4.603e-07
-2.01887e-06
-3.8976e-08
1.78652e-11
0.000189198
0.000178368
0.000157098
0.000124426
7.94813e-05
2.03184e-05
-5.50298e-05
-0.000146575
-0.000256835
-0.000390996
-0.000522391
-0.000605361
-0.000679712
-0.000739348
-0.000784631
-0.000799955
-0.000779261
-0.00072277
-0.000634924
-0.00051946
-0.000386345
-0.000246859
-0.00011748
-1.58842e-05
4.00389e-05
3.63376e-05
-3.31646e-05
-0.0001641
-0.000340653
-0.000538008
-0.000721293
-0.000875446
-0.000970794
-0.000949828
-0.00085177
-0.00072196
-0.00057653
-0.000434068
-0.000302755
-0.000162378
-0.00012705
-0.000188361
-6.86284e-05
3.55366e-05
1.6294e-06
-1.94179e-06
-3.7858e-08
2.67701e-11
0.000157292
0.000144486
0.000119266
8.01917e-05
2.61739e-05
-4.49232e-05
-0.000133971
-0.000243629
-0.000379351
-0.000502725
-0.000577983
-0.000641458
-0.000698002
-0.000734922
-0.000740464
-0.000712573
-0.000652708
-0.00056166
-0.000445791
-0.000312857
-0.000175377
-4.78062e-05
5.23756e-05
0.000108343
0.00010646
4.00386e-05
-8.79128e-05
-0.000263888
-0.000465335
-0.000663706
-0.000829339
-0.000951206
-0.00100068
-0.000921886
-0.000788338
-0.00064547
-0.000498604
-0.000365689
-0.00024934
-0.000125517
-9.92352e-05
-0.000170364
-6.38559e-05
4.02989e-05
3.64762e-06
-1.85107e-06
-3.62966e-08
3.59511e-11
0.000115762
0.000100449
7.02236e-05
2.30791e-05
-4.18125e-05
-0.000125678
-0.000231824
-0.00036723
-0.000485819
-0.000551592
-0.000604273
-0.000653433
-0.000678414
-0.000674629
-0.000641825
-0.000577541
-0.000485133
-0.000369154
-0.000238436
-0.000103848
2.01208e-05
0.000117644
0.000172523
0.000171738
0.000108342
-1.58848e-05
-0.000189398
-0.000392165
-0.000598718
-0.000778721
-0.000916926
-0.000995716
-0.000979594
-0.00086142
-0.000710433
-0.000562523
-0.000422016
-0.000302472
-0.000201771
-9.32692e-05
-7.51128e-05
-0.000154609
-5.91299e-05
4.48211e-05
5.53847e-06
-1.75667e-06
-3.45771e-08
4.4792e-11
6.27125e-05
4.41807e-05
7.66584e-06
-4.87963e-05
-0.000124848
-0.00022531
-0.000357393
-0.000472838
-0.000528032
-0.000570551
-0.000607704
-0.000620229
-0.000607449
-0.000567064
-0.000499174
-0.000404976
-0.000290191
-0.000162255
-3.2087e-05
8.73449e-05
0.000180917
0.000233722
0.000233247
0.000172523
5.2375e-05
-0.000117481
-0.000319207
-0.000529518
-0.000722985
-0.000871455
-0.000973081
-0.00100762
-0.000924481
-0.000776517
-0.000623059
-0.000478405
-0.000349742
-0.000245597
-0.000160157
-6.53242e-05
-5.42736e-05
-0.000140852
-5.45484e-05
4.90352e-05
7.26948e-06
-1.66603e-06
-3.29229e-08
5.2891e-11
-4.15307e-06
-2.64236e-05
-7.00316e-05
-0.00013515
-0.000229243
-0.000353721
-0.000464802
-0.000509575
-0.00054003
-0.000563525
-0.000562689
-0.000539718
-0.000491389
-0.000418042
-0.000322398
-0.000208642
-8.44135e-05
4.07603e-05
0.000154606
0.000243415
0.000293198
0.000292275
0.000233722
0.000117643
-4.7807e-05
-0.00024686
-0.000458334
-0.000658806
-0.000823385
-0.000935105
-0.000994706
-0.000976143
-0.00084282
-0.000680564
-0.00053338
-0.000398279
-0.000284309
-0.000195795
-0.000124373
-4.13538e-05
-3.63955e-05
-0.000128952
-5.02592e-05
5.28773e-05
8.82252e-06
-1.5844e-06
-3.14931e-08
6.00138e-11
-8.57992e-05
-0.00011117
-0.000161735
-0.000250032
-0.000361511
-0.000462648
-0.000497928
-0.00051592
-0.000525646
-0.000510453
-0.000474298
-0.000416439
-0.00033672
-0.0002381
-0.000125342
-4.65588e-06
0.000115007
0.000222807
0.000306127
0.000352223
0.000350143
0.000293198
0.000180917
2.01201e-05
-0.000175378
-0.000386346
-0.000591029
-0.000768075
-0.000892669
-0.000967436
-0.000982334
-0.000896515
-0.000741582
-0.000584812
-0.000446219
-0.000324943
-0.000226712
-0.00015297
-9.39271e-05
-2.0926e-05
-2.11467e-05
-0.000118765
-4.63925e-05
5.63038e-05
1.01929e-05
-1.51496e-06
-3.03845e-08
6.60601e-11
-0.000189451
-0.000226139
-0.00029638
-0.000388557
-0.000468252
-0.000495238
-0.000501794
-0.000497668
-0.000466607
-0.000415427
-0.000345061
-0.000257156
-0.000154295
-4.11002e-05
7.64543e-05
0.00019086
0.000292396
0.000369919
0.000411831
0.000408072
0.000352223
0.000243415
8.73441e-05
-0.000103848
-0.000312858
-0.000519461
-0.000703335
-0.000845508
-0.000927304
-0.000964128
-0.00093922
-0.000796847
-0.000631517
-0.000490556
-0.000364582
-0.000259161
-0.000176537
-0.000116298
-6.80241e-05
-3.48311e-06
-8.1026e-06
-0.000110077
-4.30574e-05
5.92932e-05
1.1395e-05
-1.45825e-06
-2.96168e-08
7.11264e-11
-0.000340822
-0.000379352
-0.00044786
-0.000487848
-0.000505985
-0.000502698
-0.000484273
-0.000435666
-0.000367159
-0.000281684
-0.000182435
-7.31475e-05
4.2115e-05
0.000157963
0.000267786
0.000363443
0.000435179
0.000472746
0.000466977
0.00041183
0.000306127
0.000154605
-3.20878e-05
-0.000238437
-0.000445792
-0.000634925
-0.000788448
-0.000886517
-0.000932912
-0.000927758
-0.000839353
-0.000683259
-0.000530444
-0.000402114
-0.000291487
-0.000201971
-0.000133647
-8.52134e-05
-4.60958e-05
1.1363e-05
3.03447e-06
-0.000102695
-4.02953e-05
6.18357e-05
1.24386e-05
-1.41433e-06
-2.92055e-08
7.52251e-11
-0.000503701
-0.000517273
-0.000534825
-0.000540516
-0.000526832
-0.000491779
-0.000423476
-0.000334864
-0.000231113
-0.000117209
1.93257e-06
0.000121798
0.000237854
0.000344588
0.000435248
0.00050173
0.000535154
0.000527365
0.000472746
0.000369919
0.000222806
4.07595e-05
-0.000162256
-0.000369155
-0.000561661
-0.000722771
-0.000838204
-0.000891608
-0.000903952
-0.000866219
-0.000725644
-0.000565897
-0.000434299
-0.000320513
-0.000226262
-0.000152053
-9.66758e-05
-5.85519e-05
-2.72518e-05
2.42203e-05
1.26353e-05
-9.64008e-05
-3.79377e-05
6.40198e-05
1.33381e-05
-1.38194e-06
-2.91044e-08
7.84936e-11
-0.000622845
-0.000622538
-0.00061087
-0.000585224
-0.000528366
-0.000437389
-0.000325387
-0.000199553
-6.69705e-05
6.59733e-05
0.000194119
0.000313197
0.000418973
0.000506239
0.00056854
0.000598524
0.0005891
0.000535153
0.000435179
0.000292396
0.000115006
-8.44143e-05
-0.000290192
-0.000485134
-0.000652709
-0.000779263
-0.000849953
-0.000869162
-0.000846294
-0.000756404
-0.000604637
-0.00046126
-0.000345935
-0.000248044
-0.000169502
-0.000109036
-6.49146e-05
-3.56111e-05
-1.09436e-05
3.54687e-05
2.09802e-05
-9.10089e-05
-3.59056e-05
6.58962e-05
1.4111e-05
-1.35916e-06
-2.92581e-08
8.10247e-11
-0.000744964
-0.000726251
-0.000681573
-0.000600186
-0.00048501
-0.000346616
-0.000194659
-3.87509e-05
0.000112724
0.000253587
0.00037958
0.000487434
0.000573639
0.000633531
0.000661363
0.000651214
0.000598524
0.00050173
0.000363443
0.000190859
-4.65664e-06
-0.000208643
-0.000404977
-0.000577542
-0.000712575
-0.000799957
-0.000827184
-0.000817995
-0.00076892
-0.000633767
-0.000484505
-0.000365468
-0.000265488
-0.000183671
-0.000119737
-7.14846e-05
-3.71561e-05
-1.54552e-05
3.51747e-06
4.55829e-05
2.84115e-05
-8.62736e-05
-3.40625e-05
6.75416e-05
1.47817e-05
-1.34257e-06
-2.95546e-08
8.30649e-11
-0.000845137
-0.000797191
-0.00070245
-0.000569213
-0.000405217
-0.000224494
-4.08439e-05
0.000134348
0.000293136
0.000430807
0.000544813
0.000633203
0.000693254
0.000720959
0.000711642
0.000661363
0.00056854
0.000435247
0.000267786
7.64537e-05
-0.000125342
-0.000322399
-0.000499175
-0.000641826
-0.000740466
-0.000784633
-0.000781371
-0.000744479
-0.000652256
-0.000509125
-0.000379384
-0.000278403
-0.000194086
-0.000127266
-7.62476e-05
-3.85598e-05
-1.26398e-05
2.53038e-06
1.65909e-05
5.48836e-05
3.51592e-05
-8.20213e-05
-3.2286e-05
6.90221e-05
1.53677e-05
-1.32943e-06
-2.99036e-08
8.47338e-11
-0.000887768
-0.000815526
-0.000680532
-0.000500762
-0.000294206
-8.10665e-05
0.000122126
0.000304166
0.00045892
0.000584018
0.000678844
0.000742572
0.000773049
0.00076694
0.000720959
0.000633531
0.000506239
0.000344588
0.000157962
-4.11008e-05
-0.000238101
-0.000418043
-0.000567066
-0.000674631
-0.000734924
-0.000739349
-0.000714829
-0.000657872
-0.000525131
-0.00038862
-0.000285349
-0.000199537
-0.000130516
-7.73438e-05
-3.76609e-05
-9.12391e-06
9.51842e-06
1.90013e-05
2.875e-05
6.37064e-05
4.14575e-05
-7.80676e-05
-3.04157e-05
7.042e-05
1.58881e-05
-1.31629e-06
-3.01851e-08
8.62482e-11
-0.000881629
-0.000786546
-0.000615977
-0.000398746
-0.000162204
6.90429e-05
0.000277821
0.000454647
0.00059615
0.000702433
0.000774326
0.000811479
0.000811929
0.00077305
0.000693255
0.000573639
0.000418973
0.000237854
4.21146e-05
-0.000154296
-0.000336721
-0.00049139
-0.000607451
-0.000678416
-0.000698004
-0.000679714
-0.000632637
-0.000531641
-0.000398969
-0.000287036
-0.000200504
-0.000129735
-7.46397e-05
-3.32757e-05
-3.27026e-06
1.74392e-05
2.98056e-05
3.43202e-05
4.02586e-05
7.22449e-05
4.7436e-05
-7.43048e-05
-2.833e-05
7.17954e-05
1.63533e-05
-1.3008e-06
-3.03133e-08
8.76983e-11
-0.000819093
-0.000707423
-0.000512934
-0.000273902
-2.45605e-05
0.000208513
0.000409385
0.00057145
0.000694165
0.000779293
0.00082795
0.000839372
0.00081148
0.000742573
0.000633203
0.000487435
0.000313197
0.000121798
-7.31479e-05
-0.000257156
-0.00041644
-0.00053972
-0.000620231
-0.000653435
-0.00064146
-0.000605363
-0.000531158
-0.00040242
-0.000283671
-0.000195961
-0.000123957
-6.74381e-05
-2.47598e-05
6.35057e-06
2.79959e-05
4.19152e-05
4.87812e-05
4.8877e-05
5.13917e-05
8.07024e-05
5.32288e-05
-7.06208e-05
-2.58962e-05
7.32139e-05
1.67752e-05
-1.28028e-06
-3.01884e-08
8.92501e-11
-0.000704069
-0.00058543
-0.000383623
-0.00014251
0.000100522
0.000319761
0.00050217
0.000644189
0.000746992
0.000812266
0.000839893
0.00082795
0.000774326
0.000678845
0.000544813
0.00037958
0.00019412
1.9325e-06
-0.000182435
-0.000345062
-0.0004743
-0.00056269
-0.000607706
-0.000604275
-0.000577984
-0.000522392
-0.000399656
-0.000276946
-0.000187104
-0.000113812
-5.60594e-05
-1.23363e-05
1.96816e-05
4.20568e-05
5.65402e-05
6.45867e-05
6.66282e-05
6.27836e-05
6.22203e-05
8.91323e-05
5.88637e-05
-6.69866e-05
-2.30511e-05
7.47076e-05
1.71571e-05
-1.25359e-06
-2.97622e-08
9.09445e-11
-0.000549895
-0.000436074
-0.000246079
-2.38441e-05
0.000194933
0.000388229
0.000546576
0.00066824
0.000753827
0.000802716
0.000812266
0.000779293
0.000702434
0.000584019
0.000430807
0.000253588
6.59736e-05
-0.000117209
-0.000281684
-0.000415428
-0.000510455
-0.000563527
-0.000570552
-0.000551593
-0.000502726
-0.000390996
-0.000268755
-0.000175088
-0.000100717
-4.17177e-05
3.10821e-06
3.6016e-05
5.91358e-05
7.41643e-05
8.2562e-05
8.55552e-05
8.33778e-05
7.60293e-05
7.27175e-05
9.75088e-05
6.43146e-05
-6.34175e-05
-1.97837e-05
7.62853e-05
1.74984e-05
-1.22047e-06
-2.90181e-08
9.28016e-11
-0.000378175
-0.000281328
-0.000121642
6.3423e-05
0.000244799
0.000406046
0.000540415
0.000645397
0.000718137
0.000753828
0.000746993
0.000694166
0.000596151
0.000458921
0.000293137
0.000112725
-6.69701e-05
-0.000231113
-0.00036716
-0.000466608
-0.000525647
-0.000540031
-0.000528033
-0.000485819
-0.000379351
-0.000256834
-0.00016096
-8.52614e-05
-2.51135e-05
2.07824e-05
5.46163e-05
7.85082e-05
9.41825e-05
0.000103017
0.000106236
0.000104876
9.90095e-05
8.85541e-05
8.28111e-05
0.000105762
6.95301e-05
-5.99526e-05
-1.61292e-05
7.7937e-05
1.77974e-05
-1.18152e-06
-2.79737e-08
9.47972e-11
-0.000215741
-0.000145681
-2.99333e-05
0.000106576
0.000245115
0.000374971
0.000489692
0.000582723
0.000645397
0.000668241
0.00064419
0.000571451
0.000454649
0.000304168
0.000134349
-3.87502e-05
-0.000199552
-0.000334864
-0.000435667
-0.000497669
-0.000515921
-0.000509575
-0.000472838
-0.00036723
-0.000243629
-0.000146574
-6.92907e-05
-7.76025e-06
3.93087e-05
7.41918e-05
9.90243e-05
0.000115503
0.000125005
0.000128663
0.000127511
0.000122435
0.000113377
0.000100205
9.23552e-05
0.000113757
7.44237e-05
-5.66604e-05
-1.21799e-05
7.96299e-05
1.80512e-05
-1.13823e-06
-2.66829e-08
9.6868e-11
-8.76913e-05
-4.90852e-05
1.78158e-05
0.000104246
0.000202902
0.000306903
0.000406875
0.000489693
0.000540416
0.000546577
0.000502171
0.000409386
0.000277822
0.000122127
-4.0843e-05
-0.000194658
-0.000325386
-0.000423476
-0.000484274
-0.000501795
-0.000497928
-0.000464801
-0.000357392
-0.000231823
-0.000133971
-5.50298e-05
8.16356e-06
5.67376e-05
9.2991e-05
0.000119088
0.00013671
0.000147189
0.000151651
0.000151045
0.000146259
0.000138062
0.000126296
0.000110798
0.000101175
0.000121325
7.8898e-05
-5.3621e-05
-8.07425e-06
8.13162e-05
1.8258e-05
-1.09263e-06
-2.52257e-08
9.89358e-11
-8.94964e-06
4.985e-07
2.41249e-05
6.88147e-05
0.000136467
0.000220763
0.000306903
0.000374971
0.000406047
0.00038823
0.000319762
0.000208514
6.9044e-05
-8.10655e-05
-0.000224493
-0.000346615
-0.000437389
-0.000491779
-0.000502699
-0.000495237
-0.000462647
-0.00035372
-0.000225309
-0.000125677
-4.49232e-05
2.03184e-05
7.08895e-05
0.000109026
0.000136876
0.000156113
0.000168045
0.000173748
0.000174165
0.000170109
0.00016236
0.000151601
0.000137591
0.000120158
0.000109096
0.000128286
8.28618e-05
-5.09127e-05
-3.98554e-06
8.29378e-05
1.8418e-05
-1.04722e-06
-2.37029e-08
1.009e-10
2.15934e-05
1.07356e-05
5.37822e-06
2.2976e-05
6.96633e-05
0.000136467
0.000202903
0.000245116
0.0002448
0.000194934
0.000100524
-2.45593e-05
-0.000162203
-0.000294206
-0.000405216
-0.00048501
-0.000528366
-0.000526832
-0.000505985
-0.000468251
-0.00036151
-0.000229243
-0.000124848
-4.18126e-05
2.61738e-05
7.94814e-05
0.000120205
0.000150469
0.000171937
0.000185905
0.000193429
0.000195402
0.000192638
0.000185853
0.00017575
0.000162948
0.000147137
0.000128149
0.000115969
0.000134467
8.62433e-05
-4.86003e-05
-1.0699e-07
8.44343e-05
1.85348e-05
-1.00449e-06
-2.22195e-08
1.02686e-10
2.00119e-05
1.17609e-06
-1.53171e-05
-9.52585e-06
2.2976e-05
6.88148e-05
0.000104247
0.000106576
6.34239e-05
-2.3843e-05
-0.000142509
-0.000273901
-0.000398745
-0.000500761
-0.000569213
-0.000600186
-0.000585225
-0.000540516
-0.000487847
-0.000388557
-0.000250032
-0.00013515
-4.87964e-05
2.3079e-05
8.01916e-05
0.000124426
0.000157934
0.000182396
0.000199104
0.00020911
0.000213295
0.000212425
0.000207225
0.000198346
0.000186438
0.000172065
0.000154867
0.00013468
0.000121677
0.000139712
8.89941e-05
-4.67327e-05
3.35905e-06
8.57457e-05
1.86142e-05
-9.67015e-07
-2.08865e-08
1.04194e-10
7.87761e-06
-7.76462e-06
-2.03614e-05
-1.53171e-05
5.3782e-06
2.4125e-05
1.78162e-05
-2.99326e-05
-0.000121641
-0.000246078
-0.000383622
-0.000512933
-0.000615976
-0.000680532
-0.00070245
-0.000681574
-0.00061087
-0.000534825
-0.00044786
-0.000296381
-0.000161736
-7.00317e-05
7.66575e-06
7.02236e-05
0.000119266
0.000157098
0.000185519
0.000205846
0.000219135
0.000226274
0.000228028
0.000225082
0.000218099
0.000207689
0.000194464
0.000178949
0.000160739
0.000139681
0.000126115
0.000143872
9.10833e-05
-4.53419e-05
6.21175e-06
8.68161e-05
1.86642e-05
-9.37044e-07
-1.97998e-08
1.0539e-10
5.75617e-07
-6.13479e-06
-7.76471e-06
1.17596e-06
1.07356e-05
4.98667e-07
-4.90847e-05
-0.000145681
-0.000281327
-0.000436073
-0.000585429
-0.000707422
-0.000786545
-0.000815526
-0.000797191
-0.000726252
-0.000622538
-0.000517272
-0.000379352
-0.000226139
-0.000111171
-2.64238e-05
4.41806e-05
0.000100449
0.000144486
0.000178368
0.000203597
0.000221296
0.000232386
0.000237664
0.000237829
0.000233518
0.000225361
0.000213944
0.000199853
0.000183588
0.000164713
0.000143086
0.000129175
0.000146784
9.24679e-05
-4.44665e-05
8.24279e-06
8.75827e-05
1.86908e-05
-9.16912e-07
-1.90615e-08
1.06155e-10
-1.24772e-07
5.75535e-07
7.87744e-06
2.00117e-05
2.15933e-05
-8.94945e-06
-8.76908e-05
-0.00021574
-0.000378174
-0.000549894
-0.000704068
-0.000819092
-0.000881629
-0.000887768
-0.000845137
-0.000744964
-0.000622845
-0.0005037
-0.000340822
-0.000189452
-8.57993e-05
-4.15314e-06
6.27126e-05
0.000115762
0.000157292
0.000189198
0.000212822
0.00022919
0.000239163
0.000243492
0.000242846
0.000237837
0.000229081
0.000217149
0.000202615
0.00018598
0.000166806
0.000144881
0.000130553
0.000147965
9.34889e-05
-4.31375e-05
9.46656e-06
8.75608e-05
1.86008e-05
-8.98518e-07
-1.8287e-08
1.06392e-10
)
;

boundaryField
{
    inlet
    {
        type            cyclic;
    }
    outlet
    {
        type            cyclic;
    }
    walls
    {
        type            calculated;
        value           nonuniform List<scalar> 
96
(
4.44711e-16
1.8266e-15
3.55086e-14