/*--------------------------------*- C++ -*----------------------------------*\
| =========                 |                                                 |
| \\      /  F ield         | OpenFOAM: The Open Source CFD Toolbox           |
|  \\    /   O peration     | Version:  2412                                  |
|   \\  /    A nd           | Website:  www.openfoam.com                      |
|    \\/     M anipulation  |                                                 |
\*---------------------------------------------------------------------------*/
FoamFile
{
    version     2.0;
    format      ascii;
    arch        "LSB;label=32;scalar=64";
    class       volScalarField;
    location    "1830";
    object      I4;
}
// * * * * * * * * * * * * * * * * * * * * * * * * * * * * * * * * * * * * * //

dimensions      [0 0 0 0 0 0 0];

internalField   nonuniform List<scalar> 
2304
(
-3.54716e-11
-3.53851e-11
-3.51298e-11
-3.47309e-11
-3.42284e-11
-3.36332e-11
-3.29785e-11
-3.2289e-11
-3.15989e-11
-3.09337e-11
-3.03148e-11
-2.97498e-11
-2.92328e-11
-2.87493e-11
-2.82447e-11
-2.76881e-11
-2.70083e-11
-2.61644e-11
-2.5075e-11
-2.37087e-11
-2.202e-11
-2.00045e-11
-1.76303e-11
-1.49306e-11
-1.19836e-11
-8.92328e-12
-5.95499e-12
-3.20491e-12
-4.71307e-13
3.43543e-12
7.94089e-12
1.23028e-11
1.61795e-11
1.91739e-11
2.0744e-11
2.03247e-11
1.75849e-11
1.2744e-11
6.78664e-12
1.28378e-12
-2.12684e-12
-2.82657e-12
-1.93442e-12
-8.88919e-13
-2.78982e-13
-5.18116e-14
-3.85822e-15
-1.40624e-16
6.09523e-09
6.35384e-09
6.59998e-09
6.96225e-09
7.40653e-09
7.90099e-09
8.40856e-09
8.89437e-09
9.3246e-09
9.67271e-09
9.92074e-09
1.00629e-08
1.01045e-08
1.00618e-08
9.96789e-09
9.8516e-09
9.75275e-09
9.70155e-09
9.7352e-09
9.87233e-09
1.01282e-08
1.04977e-08
1.09743e-08
1.15257e-08
1.20989e-08
1.26193e-08
1.2992e-08
1.31578e-08
1.32257e-08
1.35939e-08
1.40858e-08
1.4433e-08
1.45175e-08
1.42176e-08
1.337e-08
1.18212e-08
9.52271e-09
6.63643e-09
3.58627e-09
9.69277e-10
-6.42494e-10
-1.07332e-09
-7.91019e-10
-3.90259e-10
-1.36982e-10
-3.10196e-11
-2.36687e-12
-3.8585e-15
2.9951e-07
3.05636e-07
3.12347e-07
3.22338e-07
3.34829e-07
3.49071e-07
3.64208e-07
3.79407e-07
3.9384e-07
4.06821e-07
4.1786e-07
4.26759e-07
4.33597e-07
4.38764e-07
4.43142e-07
4.47524e-07
4.53051e-07
4.60645e-07
4.71443e-07
4.86081e-07
5.04983e-07
5.28131e-07
5.55337e-07
5.85549e-07
6.17016e-07
6.47255e-07
6.72947e-07
6.91297e-07
7.03851e-07
7.20726e-07
7.36245e-07
7.41904e-07
7.33495e-07
7.06572e-07
6.55629e-07
5.76072e-07
4.67456e-07
3.36806e-07
2.00086e-07
7.89303e-08
-3.90855e-09
-3.60667e-08
-3.21844e-08
-1.76703e-08
-6.4459e-09
-1.0944e-09
-3.10196e-11
-5.18127e-14
-6.20017e-06
-6.23019e-06
-6.22133e-06
-6.20464e-06
-6.17818e-06
-6.13927e-06
-6.08594e-06
-6.017e-06
-5.9324e-06
-5.83273e-06
-5.71895e-06
-5.59169e-06
-5.45105e-06
-5.29598e-06
-5.12253e-06
-4.9272e-06
-4.70362e-06
-4.44601e-06
-4.14617e-06
-3.79831e-06
-3.39762e-06
-2.94081e-06
-2.42313e-06
-1.84613e-06
-1.21584e-06
-5.43102e-07
1.53466e-07
8.49851e-07
1.52857e-06
2.20968e-06
2.86512e-06
3.4529e-06
3.93975e-06
4.27946e-06
4.41352e-06
4.2869e-06
3.8693e-06
3.17402e-06
2.26655e-06
1.24472e-06
3.0119e-07
-2.49343e-07
-3.46625e-07
-2.10663e-07
-6.3753e-08
-6.4459e-09
-1.36982e-10
-2.78984e-13
-2.91853e-05
-2.91927e-05
-2.89372e-05
-2.85804e-05
-2.81434e-05
-2.76446e-05
-2.71041e-05
-2.65421e-05
-2.59779e-05
-2.54274e-05
-2.49015e-05
-2.44037e-05
-2.39309e-05
-2.34725e-05
-2.30065e-05
-2.25131e-05
-2.19646e-05
-2.13392e-05
-2.06112e-05
-1.97637e-05
-1.87673e-05
-1.76251e-05
-1.63444e-05
-1.49397e-05
-1.34323e-05
-1.18449e-05
-1.02097e-05
-8.57161e-06
-6.95527e-06
-4.71883e-06
-2.30006e-06
-9.22087e-08
1.82001e-06
3.33157e-06
4.36272e-06
4.92074e-06
5.13028e-06
5.17465e-06
5.11125e-06
4.35334e-06
2.10735e-06
-2.89619e-07
-1.23829e-06
-8.27162e-07
-2.10663e-07
-1.76703e-08
-3.90259e-10
-8.88922e-13
-3.15545e-06
-2.74774e-06
-2.07071e-06
-1.11983e-06
3.55253e-08
1.32839e-06
2.6913e-06
4.05982e-06
5.37628e-06
6.59448e-06
7.68365e-06
8.63202e-06
9.44334e-06
1.01386e-05
1.0762e-05
1.13542e-05
1.19685e-05
1.26459e-05
1.34317e-05
1.43524e-05
1.5464e-05
1.67529e-05
1.81826e-05
1.97097e-05
2.1285e-05
2.28758e-05
2.44623e-05
2.60367e-05
2.73936e-05
2.8048e-05
2.81208e-05
2.77754e-05
2.70003e-05
2.5841e-05
2.44311e-05
2.29611e-05
2.15758e-05
2.02644e-05
1.91138e-05
1.71065e-05
1.07227e-05
2.67701e-06
-1.31473e-06
-1.23829e-06
-3.46625e-07
-3.21843e-08
-7.91018e-10
-1.93443e-12
1.43789e-05
1.48218e-05
1.51135e-05
1.55771e-05
1.61997e-05
1.69705e-05
1.78732e-05
1.88863e-05
1.99837e-05
2.11387e-05
2.23284e-05
2.35397e-05
2.47677e-05
2.60219e-05
2.73398e-05
2.87572e-05
3.03355e-05
3.21326e-05
3.42304e-05
3.66909e-05
3.95866e-05
4.29818e-05
4.6948e-05
5.15329e-05
5.67839e-05
6.27819e-05
6.96302e-05
7.74533e-05
8.59096e-05
8.97932e-05
9.13258e-05
9.30208e-05
9.49993e-05
9.7218e-05
9.9498e-05
0.000101374
0.000101976
9.99713e-05
9.46524e-05
8.37711e-05
5.38684e-05
1.94914e-05
2.67701e-06
-2.89617e-07
-2.49342e-07
-3.60667e-08
-1.07332e-09
-2.82658e-12
-3.11627e-05
-3.08225e-05
-3.0361e-05
-2.96646e-05
-2.87477e-05
-2.76205e-05
-2.62993e-05
-2.48078e-05
-2.31766e-05
-2.14381e-05
-1.96212e-05
-1.77429e-05
-1.58119e-05
-1.38191e-05
-1.17197e-05
-9.47047e-06
-6.99337e-06
-4.21175e-06
-1.01147e-06
2.70087e-06
7.04891e-06
1.21318e-05
1.80912e-05
2.50376e-05
3.30784e-05
4.23502e-05
5.29377e-05
6.48391e-05
7.79174e-05
9.14402e-05
0.000105457
0.000119957
0.000134172
0.00014681
0.000156354
0.000161518
0.000161895
0.000158097
0.000153262
0.000157857
0.000127936
5.38683e-05
1.07227e-05
2.10735e-06
3.01191e-07
-3.90849e-09
-6.42493e-10
-2.12685e-12
-4.93195e-05
-4.89263e-05
-4.79557e-05
-4.65692e-05
-4.48211e-05
-4.27609e-05
-4.04408e-05
-3.79182e-05
-3.52533e-05
-3.25023e-05
-2.97103e-05
-2.69004e-05
-2.40813e-05
-2.12352e-05
-1.82944e-05
-1.51942e-05
-1.18229e-05
-8.07352e-06
-3.78783e-06
1.16074e-06
6.97492e-06
1.3784e-05
2.1774e-05
3.10889e-05
4.18379e-05
5.4125e-05
6.78572e-05
8.27002e-05
9.80896e-05
0.00011544
0.0001331
0.000148951
0.000161366
0.000168655
0.000169696
0.000164705
0.000155779
0.000146038
0.00013685
0.000147705
0.000157857
8.3771e-05
1.71065e-05
4.35334e-06
1.24472e-06
7.89303e-08
9.69277e-10
1.28377e-12
-4.35172e-05
-4.30582e-05
-4.20382e-05
-4.05589e-05
-3.86564e-05
-3.63653e-05
-3.37249e-05
-3.07851e-05
-2.76037e-05
-2.42392e-05
-2.07401e-05
-1.71305e-05
-1.34195e-05
-9.58329e-06
-5.53025e-06
-1.17242e-06
3.64795e-06
9.08403e-06
1.53654e-05
2.26748e-05
3.13091e-05
4.14579e-05
5.33859e-05
6.72571e-05
8.31134e-05
0.000100918
0.000120229
0.000140234
0.000159836
0.000177652
0.000191596
0.000199715
0.000200587
0.000193684
0.000180095
0.000162875
0.000146689
0.000135364
0.000129157
0.00013685
0.000153262
9.46524e-05
1.91138e-05
5.11126e-06
2.26655e-06
2.00086e-07
3.58627e-09
6.78662e-12
-4.82936e-05
-4.76954e-05
-4.65606e-05
-4.48935e-05
-4.27166e-05
-4.00529e-05
-3.69327e-05
-3.34018e-05
-2.95181e-05
-2.53432e-05
-2.09279e-05
-1.62923e-05
-1.144e-05
-6.33369e-06
-8.4335e-07
5.15185e-06
1.18705e-05
1.95175e-05
2.84047e-05
3.87661e-05
5.09903e-05
6.52654e-05
8.1866e-05
0.000100824
0.000121897
0.00014469
0.000168142
0.000190711
0.000210591
0.00022579
0.000233546
0.000231961
0.000220822
0.000201844
0.000178783
0.000156876
0.000141732
0.000136129
0.000135364
0.000146039
0.000158097
9.99712e-05
2.02644e-05
5.17466e-06
3.17402e-06
3.36806e-07
6.63642e-09
1.27439e-11
-5.56018e-05
-5.49042e-05
-5.35795e-05
-5.16222e-05
-4.90459e-05
-4.58637e-05
-4.20986e-05
-3.77926e-05
-3.30032e-05
-2.77927e-05
-2.22094e-05
-1.62604e-05
-9.93518e-06
-3.17277e-06
4.21334e-06
1.23854e-05
2.16383e-05
3.22254e-05
4.45491e-05
5.88457e-05
7.55709e-05
9.47697e-05
0.000116581
0.000140672
0.000166202
0.000192177
0.000216753
0.000237609
0.000252257
0.000258482
0.000254278
0.000239482
0.000216329
0.000189171
0.000163686
0.000145416
0.000138071
0.000141732
0.000146689
0.00015578
0.000161895
0.000101976
2.15758e-05
5.1303e-06
3.8693e-06
4.67455e-07
9.5227e-09
1.75848e-11
-6.19929e-05
-6.1196e-05
-5.96496e-05
-5.7355e-05
-5.43159e-05
-5.05337e-05
-4.60208e-05
-4.08117e-05
-3.49587e-05
-2.85185e-05
-2.15289e-05
-1.39718e-05
-5.81308e-06
3.0413e-06
1.28533e-05
2.38282e-05
3.63453e-05
5.06844e-05
6.73238e-05
8.63872e-05
0.000108314
0.00013276
0.000159468
0.000187508
0.000215156
0.000240653
0.00026157
0.000275349
0.000279588
0.000272879
0.000255028
0.00022846
0.000198032
0.000169881
0.000149856
0.00014161
0.000145416
0.000156876
0.000162875
0.000164705
0.000161518
0.000101373
2.29611e-05
4.92076e-06
4.2869e-06
5.76072e-07
1.18212e-08
2.03246e-11
-6.75382e-05
-6.66175e-05
-6.48212e-05
-6.21459e-05
-5.85835e-05
-5.41201e-05
-4.8753e-05
-4.25037e-05
-3.54119e-05
-2.75207e-05
-1.88468e-05
-9.33203e-06
1.09007e-06
1.25536e-05
2.54159e-05
3.99124e-05
5.65008e-05
7.54208e-05
9.71624e-05
0.000121527
0.00014874
0.000177793
0.000207685
0.000236809
0.000262777
0.000283922
0.000296092
0.00029727
0.000286702
0.000266101
0.000237502
0.000204953
0.000174883
0.000153621
0.000145187
0.000149856
0.000163686
0.000178783
0.000180095
0.000169696
0.000156354
9.9498e-05
2.44311e-05
4.36274e-06
4.41352e-06
6.55628e-07
1.337e-08
2.07439e-11
-7.23829e-05
-7.13144e-05
-6.92297e-05
-6.61154e-05
-6.19509e-05
-5.67031e-05
-5.03485e-05
-4.28878e-05
-3.43391e-05
-2.47215e-05
-1.4019e-05
-2.11692e-06
1.10919e-05
2.57813e-05
4.24219e-05
6.12236e-05
8.26814e-05
0.000106838
0.000134038
0.000163518
0.000194936
0.000226852
0.000258837
0.00028714
0.000307297
0.000316611
0.000314358
0.00030023
0.000275069
0.000242086
0.000206914
0.000176899
0.000155727
0.000147676
0.000153621
0.000169881
0.000189171
0.000201844
0.000193684
0.000168655
0.00014681
9.7218e-05
2.5841e-05
3.33159e-06
4.27946e-06
7.06571e-07
1.42176e-08
1.91739e-11
-7.63603e-05
-7.51201e-05
-7.26995e-05
-6.9075e-05
-6.42126e-05
-5.80551e-05
-5.05505e-05
-4.16685e-05
-3.13943e-05
-1.9712e-05
-6.56058e-06
8.25317e-06
2.48799e-05
4.35053e-05
6.46954e-05
8.8496e-05
0.000115312
0.000144766
0.000176813
0.000210502
0.000247193
0.000280942
0.000308164
0.000326538
0.000333568
0.000323603
0.000302717
0.000274074
0.000241611
0.000207588
0.000175377
0.000152733
0.000147246
0.000155727
0.000174883
0.000198032
0.000216329
0.000220822
0.000200587
0.000161366
0.000134172
9.49992e-05
2.70003e-05
1.82002e-06
3.93975e-06
7.33494e-07
1.45175e-08
1.61795e-11
-7.92789e-05
-7.78392e-05
-7.50272e-05
-7.08085e-05
-6.51341e-05
-5.7916e-05
-4.90629e-05
-3.85011e-05
-2.61695e-05
-1.20054e-05
4.11203e-06
2.24793e-05
4.32449e-05
6.65124e-05
9.28011e-05
0.000121822
0.000153751
0.000188629
0.000227753
0.000265618
0.000298844
0.000325393
0.00033588
0.000331906
0.000317067
0.000291813
0.000258571
0.000221334
0.000185806
0.000158969
0.000147758
0.00014362
0.000152733
0.000176899
0.000204953
0.00022846
0.000239482
0.000231961
0.000199715
0.000148951
0.000119957
9.30207e-05
2.77754e-05
-9.21951e-08
3.4529e-06
7.41903e-07
1.4433e-08
1.23028e-11
-8.09484e-05
-7.92763e-05
-7.60094e-05
-7.10983e-05
-6.44763e-05
-5.60151e-05
-4.55699e-05
-3.30082e-05
-1.82056e-05
-1.03619e-06
1.86864e-05
4.13189e-05
6.68345e-05
9.51156e-05
0.000126459
0.000161498
0.000201546
0.000241885
0.000279792
0.000313089
0.00032745
0.000331568
0.000324357
0.000305637
0.000276441
0.000240427
0.000200806
0.000163316
0.000134009
0.000117225
0.000121266
0.000147758
0.000175377
0.000206914
0.000237503
0.000255028
0.000254278
0.000233546
0.000191596
0.000133099
0.000105457
9.13257e-05
2.81208e-05
-2.30005e-06
2.86513e-06
7.36244e-07
1.40858e-08
7.94084e-12
-8.1164e-05
-7.92214e-05
-7.54246e-05
-6.97035e-05
-6.19685e-05
-5.20378e-05
-3.9696e-05
-2.47307e-05
-6.92758e-06
1.39058e-05
3.79373e-05
6.53198e-05
9.56764e-05
0.000129536
0.000169708
0.00021126
0.000252144
0.000288755
0.000309257
0.000321374
0.000322473
0.000311694
0.000290479
0.000259571
0.000221235
0.000179336
0.000139357
0.000108518
9.32309e-05
9.73909e-05
0.000117225
0.000158969
0.000207588
0.000242086
0.000266101
0.000272879
0.000258482
0.00022579
0.000177652
0.00011544
9.14402e-05
8.97932e-05
2.80479e-05
-4.71882e-06
2.20969e-06
7.20725e-07
1.35938e-08
3.43538e-12
-7.9721e-05
-7.7462e-05
-7.3045e-05
-6.63681e-05
-5.73122e-05
-4.56253e-05
-3.0997e-05
-1.3103e-05
8.37109e-06
3.35723e-05
6.23672e-05
9.45528e-05
0.000132988
0.000175047
0.000217429
0.000256322
0.000282101
0.000301314
0.000310964
0.000309091
0.000297551
0.00027446
0.000240995
0.000199573
0.000155111
0.000113551
8.1186e-05
6.4602e-05
6.82312e-05
9.3231e-05
0.000134009
0.000185806
0.000241612
0.00027507
0.000286702
0.000279588
0.000252257
0.00021059
0.000159836
9.80895e-05
7.79174e-05
8.59096e-05
2.73935e-05
-6.95526e-06
1.52858e-06
7.0385e-07
1.32256e-08
-4.71368e-13
-7.63967e-05
-7.37653e-05
-6.86155e-05
-6.07986e-05
-5.01564e-05
-3.6342e-05
-1.89126e-05
2.58672e-06
2.84204e-05
5.83611e-05
9.23099e-05
0.000134141
0.000177222
0.000219308
0.000248163
0.000272662
0.000289713
0.000297192
0.000295501
0.000281835
0.000256025
0.000219602
0.000176505
0.000130721
8.79623e-05
5.46997e-05
3.70919e-05
3.99121e-05
6.46021e-05
0.000108518
0.000163316
0.000221334
0.000274074
0.00030023
0.00029727
0.000275348
0.000237609
0.00019071
0.000140234
8.27001e-05
6.4839e-05
7.74533e-05
2.60366e-05
-8.57161e-06
8.49857e-07
6.91296e-07
1.31578e-08
-3.20498e-12
-7.09406e-05
-6.78658e-05
-6.18396e-05
-5.26445e-05
-4.00682e-05
-2.36298e-05
-2.72115e-06
2.30969e-05
5.36516e-05
8.95799e-05
0.000133222
0.000177068
0.000210887
0.000238273
0.000260448
0.000275718
0.000283314
0.000279401
0.000262816
0.000234444
0.000197009
0.000152777
0.000106402
6.31323e-05
2.9304e-05
1.10548e-05
1.30256e-05
3.7092e-05
8.11862e-05
0.000139358
0.000200807
0.000258571
0.000302717
0.000314358
0.000296092
0.00026157
0.000216753
0.000168142
0.000120229
6.78571e-05
5.29377e-05
6.96302e-05
2.44622e-05
-1.02097e-05
1.53474e-07
6.72946e-07
1.29919e-08
-5.95506e-12
-6.30661e-05
-5.9456e-05
-5.2366e-05
-4.14755e-05
-2.64938e-05
-6.77275e-06
1.83433e-05
4.88563e-05
8.56064e-05
0.000130337
0.000174151
0.000201789
0.000226565
0.000246438
0.00026154
0.000266653
0.000259754
0.000240923
0.000211641
0.000173153
0.000128782
8.22862e-05
3.91601e-05
5.29471e-06
-1.33463e-05
-1.21125e-05
1.10549e-05
5.46999e-05
0.000113551
0.000179336
0.000240428
0.000291813
0.000323603
0.000316611
0.000283922
0.000240653
0.000192176
0.00014469
0.000100918
5.41249e-05
4.23501e-05
6.27819e-05
2.28757e-05
-1.18449e-05
-5.43094e-07
6.47254e-07
1.26193e-08
-8.92335e-12
-5.24305e-05
-4.8162e-05
-3.97552e-05
-2.67305e-05
-8.72456e-06
1.49745e-05
4.4655e-05
8.12036e-05
0.000126457
0.000167593
0.000192659
0.000213809
0.000232662
0.000244975
0.000246823
0.000237524
0.000217568
0.000187219
0.000148597
0.000104286
5.8459e-05
1.59354e-05
-1.74585e-05
-3.61142e-05
-3.54868e-05
-1.33462e-05
2.93042e-05
8.79626e-05
0.000155112
0.000221235
0.000276441
0.000317067
0.000333568
0.000307297
0.000262777
0.000215156
0.000166201
0.000121896
8.31132e-05
4.18378e-05
3.30784e-05
5.67839e-05
2.12849e-05
-1.34324e-05
-1.21583e-06
6.17015e-07
1.20988e-08
-1.19837e-11
-3.85872e-05
-3.3483e-05
-2.34079e-05
-7.69294e-06
1.39375e-05
4.18906e-05
7.72678e-05
0.000122417
0.000161958
0.000183861
0.000201412
0.00021781
0.000226139
0.000224876
0.000213941
0.000192513
0.00016171
0.000123051
7.94785e-05
3.46158e-05
-6.70694e-06
-3.92146e-05
-5.75077e-05
-5.72459e-05
-3.61141e-05
5.29491e-06
6.31325e-05
0.000130721
0.000199573
0.000259571
0.000305637
0.000331906
0.000326537
0.00028714
0.000236809
0.000187508
0.000140672
0.000100824
6.7257e-05
3.10887e-05
2.50376e-05
5.15329e-05
1.97096e-05
-1.49398e-05
-1.84612e-06
5.85548e-07
1.15257e-08
-1.49307e-11
-2.09042e-05
-1.47269e-05
-2.55525e-06
1.62654e-05
4.16138e-05
7.50965e-05
0.000119137
0.000157633
0.000176006
0.000190174
0.00020257
0.000206744
0.000202482
0.00018902
0.00016639
0.000134991
9.67302e-05
5.40849e-05
1.06957e-05
-2.9115e-05
-6.03058e-05
-7.79074e-05
-7.7749e-05
-5.75076e-05
-1.74583e-05
3.91604e-05
0.000106402
0.000176506
0.000240995
0.000290479
0.000324357
0.00033588
0.000308164
0.000258837
0.000207685
0.000159468
0.00011658
8.18659e-05
5.33857e-05
2.17739e-05
1.80912e-05
4.6948e-05
1.81824e-05
-1.63445e-05
-2.42312e-06
5.55336e-07
1.09743e-08
-1.76303e-11
1.38435e-06
8.80786e-06
2.33436e-05
4.50474e-05
7.64091e-05
0.000117913
0.000154955
0.000169854
0.00018
0.000187843
0.000187563
0.000179905
0.000163795
0.000139346
0.000107465
6.95472e-05
2.81378e-05
-1.35868e-05
-5.15353e-05
-8.11384e-05
-9.77328e-05
-9.74252e-05
-7.79073e-05
-3.92144e-05
1.59356e-05
8.22864e-05
0.000152778
0.000219602
0.00027446
0.000311694
0.000331568
0.000325393
0.000280941
0.000226852
0.000177793
0.00013276
9.47695e-05
6.52652e-05
4.14577e-05
1.37839e-05
1.21318e-05
4.29818e-05
1.67527e-05
-1.76251e-05
-2.9408e-06
5.2813e-07
1.04976e-08
-2.00046e-11
2.85998e-05
3.70563e-05
5.39091e-05
8.3342e-05
0.000120509
0.000154235
0.000165973
0.000171964
0.000175216
0.000170151
0.000158098
0.000138812
0.000112239
7.93663e-05
4.17804e-05
1.55193e-06
-3.83356e-05
-7.4269e-05
-0.000102043
-0.000117408
-0.000116714
-9.77327e-05
-6.03056e-05
-6.70669e-06
5.84593e-05
0.000128782
0.000197009
0.000256026
0.000297551
0.000322473
0.000327451
0.000298844
0.000247193
0.000194936
0.000148739
0.000108314
7.55707e-05
5.09901e-05
3.1309e-05
6.97478e-06
7.04888e-06
3.95866e-05
1.54639e-05
-1.87673e-05
-3.39761e-06
5.04982e-07
1.01282e-08
-2.202e-11
6.31509e-05
7.53794e-05
9.87937e-05
0.000129525
0.000156096
0.000165076
0.000167256
0.00016589
0.000155535
0.000138475
0.000115019
8.5718e-05
5.14313e-05
1.37e-05
-2.54848e-05
-6.362e-05
-9.74655e-05
-0.000123307
-0.000137277
-0.000136024
-0.000117408
-8.11382e-05
-2.91147e-05
3.46161e-05
0.000104286
0.000173153
0.000234444
0.000281836
0.000309091
0.000321374
0.000313089
0.000265618
0.000210502
0.000163518
0.000121527
8.6387e-05
5.88455e-05
3.87659e-05
2.26747e-05
1.16061e-06
2.70085e-06
3.66909e-05
1.43522e-05
-1.97637e-05
-3.7983e-06
4.8608e-07
9.87224e-09
-2.37088e-11
0.000113605
0.000126449
0.000149289
0.000162619
0.000168659
0.000167559
0.000161425
0.000145222
0.000122386
9.38939e-05
6.08112e-05
2.43823e-05
-1.40383e-05
-5.26542e-05
-8.92622e-05
-0.000121148
-0.00014506
-0.000157582
-0.000155659
-0.000137277
-0.000102042
-5.15351e-05
1.06959e-05
7.94788e-05
0.000148597
0.000211641
0.000262817
0.000295501
0.000310964
0.000309257
0.000279791
0.000227752
0.000176813
0.000134038
9.71622e-05
6.73236e-05
4.45489e-05
2.84045e-05
1.53652e-05
-3.78796e-06
-1.0115e-06
3.42304e-05
1.34316e-05
-2.06112e-05
-4.14616e-06
4.71441e-07
9.73514e-09
-2.5075e-11
0.000167891
0.00017242
0.000178275
0.000180171
0.000175608
0.000163927
0.000141159
0.000111621
7.70373e-05
3.90696e-05
-6.44141e-07
-4.05993e-05
-7.92847e-05
-0.000114863
-0.000145083
-0.000167244
-0.000178385
-0.000175789
-0.000157582
-0.000123306
-7.42687e-05
-1.35865e-05
5.40851e-05
0.000123051
0.000187219
0.000240923
0.000279402
0.000297193
0.000301315
0.000288756
0.000241885
0.000188628
0.000144766
0.000106838
7.54207e-05
5.06842e-05
3.22252e-05
1.95174e-05
9.08391e-06
-8.07364e-06
-4.21177e-06
3.21326e-05
1.26457e-05
-2.13392e-05
-4.446e-06
4.60644e-07
9.70146e-09
-2.61645e-11
0.000207623
0.00020752
0.000203629
0.000195076
0.000176122
0.000145796
0.000108462
6.65175e-05
2.23237e-05
-2.19908e-05
-6.47062e-05
-0.000104399
-0.000139658
-0.000168747
-0.000189514
-0.000199509
-0.000196367
-0.000178385
-0.00014506
-9.74653e-05
-3.83353e-05
2.8138e-05
9.67305e-05
0.000161711
0.000217569
0.000259755
0.000283314
0.000289713
0.000282102
0.000252144
0.000201545
0.000153751
0.000115312
8.26812e-05
5.65007e-05
3.63452e-05
2.16382e-05
1.18704e-05
3.64785e-06
-1.1823e-05
-6.99339e-06
3.03354e-05
1.19684e-05
-2.19647e-05
-4.70361e-06
4.5305e-07
9.75269e-09
-2.70082e-11
0.000248332
0.000242088
0.000227189
0.00020006
0.00016167
0.000115539
6.48867e-05
1.29175e-05
-3.75741e-05
-8.45286e-05
-0.000126526
-0.000162478
-0.000191213
-0.000211178
-0.000220455
-0.000217072
-0.000199509
-0.000167244
-0.000121148
-6.36198e-05
1.55218e-06
6.95475e-05
0.000134992
0.000192513
0.000237524
0.000266653
0.000275718
0.000272662
0.000256322
0.000211259
0.000161498
0.000121822
8.84959e-05
6.12235e-05
3.99123e-05
2.38281e-05
1.23853e-05
5.15176e-06
-1.17251e-06
-1.51943e-05
-9.47048e-06
2.87572e-05
1.13541e-05
-2.25131e-05
-4.92719e-06
4.47522e-07
9.85151e-09
-2.76883e-11
0.000281703
0.000265723
0.000234148
0.000189738
0.000135073
7.4832e-05
1.36155e-05
-4.47819e-05
-9.77112e-05
-0.000143602
-0.000181604
-0.000211068
-0.000231086
-0.00024032
-0.000237215
-0.000220455
-0.000189514
-0.000145083
-8.9262e-05
-2.54845e-05
4.17806e-05
0.000107466
0.000166391
0.000213941
0.000246823
0.000261541
0.000260449
0.000248164
0.000217428
0.000169708
0.000126459
9.2801e-05
6.46954e-05
4.24218e-05
2.54158e-05
1.28532e-05
4.21325e-06
-8.43428e-07
-5.53033e-06
-1.82945e-05
-1.17197e-05
2.73398e-05
1.07619e-05
-2.30066e-05
-5.12252e-06
4.43141e-07
9.96784e-09
-2.82446e-11
0.000295921
0.000271841
0.000226844
0.000166921
9.80699e-05
2.70233e-05
-4.07077e-05
-0.000101388
-0.000152973
-0.000194673
-0.000226282
-0.000247525
-0.000257684
-0.000255648
-0.00024032
-0.000211178
-0.000168747
-0.000114863
-5.26541e-05
1.37002e-05
7.93665e-05
0.000139347
0.000189021
0.000224876
0.000244976
0.000246439
0.000238274
0.000219308
0.000175047
0.000129535
9.51156e-05
6.65124e-05
4.35052e-05
2.57812e-05
1.25536e-05
3.04125e-06
-3.17282e-06
-6.33374e-06
-9.58334e-06
-2.12353e-05
-1.38191e-05
2.6022e-05
1.01385e-05
-2.34725e-05
-5.29597e-06
4.38763e-07
1.00617e-08
-2.87494e-11
0.000293874
0.000262181
0.000205326
0.000132916
5.40693e-05
-2.30131e-05
-9.26059e-05
-0.000151549
-0.000198717
-0.000234145
-0.00025811
-0.000270495
-0.000270644
-0.000257684
-0.000231086
-0.000191213
-0.000139658
-7.92846e-05
-1.40382e-05
5.14315e-05
0.00011224
0.000163796
0.000202483
0.00022614
0.000232663
0.000226565
0.000210887
0.000177221
0.000132987
9.56764e-05
6.68345e-05
4.32449e-05
2.48799e-05
1.10919e-05
1.09004e-06
-5.81311e-06
-9.93522e-06
-1.144e-05
-1.34195e-05
-2.40814e-05
-1.58119e-05
2.47678e-05
9.44325e-06
-2.39309e-05
-5.45104e-06
4.33597e-07
1.01044e-08
-2.92328e-11
0.000273029
0.000235808
0.000170979
9.1302e-05
8.18803e-06
-6.95032e-05
-0.000136461
-0.000190483
-0.000231389
-0.000259766
-0.000275985
-0.000279792
-0.000270495
-0.000247525
-0.000211068
-0.000162478
-0.000104399
-4.05993e-05
2.43825e-05
8.57182e-05
0.000138813
0.000179906
0.000206744
0.000217811
0.000213809
0.000201789
0.000177068
0.000134141
9.45528e-05
6.53198e-05
4.1319e-05
2.24793e-05
8.2532e-06
-2.1169e-06
-9.33202e-06
-1.39718e-05
-1.62604e-05
-1.62923e-05
-1.71305e-05
-2.69004e-05
-1.77429e-05
2.35398e-05
8.63197e-06
-2.44037e-05
-5.59167e-06
4.26758e-07
1.00628e-08
-2.975e-11
0.000234689
0.000195145
0.000127875
4.75047e-05
-3.35065e-05
-0.000106586
-0.00016739
-0.00021473
-0.000248999
-0.000270757
-0.000279967
-0.000275985
-0.00025811
-0.000226282
-0.000181605
-0.000126527
-6.47063e-05
-6.44119e-07
6.08113e-05
0.00011502
0.000158099
0.000187563
0.00020257
0.000201413
0.000192659
0.000174151
0.000133222
9.23097e-05
6.23672e-05
3.79374e-05
1.86864e-05
4.11206e-06
-6.56056e-06
-1.4019e-05
-1.88468e-05
-2.15289e-05
-2.22094e-05
-2.09279e-05
-2.07401e-05
-2.97103e-05
-1.96211e-05
2.23284e-05
7.6836e-06
-2.49015e-05
-5.71894e-06
4.1786e-07
9.92071e-09
-3.03148e-11
0.000183299
0.000145361
8.20275e-05
7.94904e-06
-6.49769e-05
-0.000129409
-0.000182192
-0.000222748
-0.000251278
-0.000267574
-0.000270757
-0.000259766
-0.000234145
-0.000194673
-0.000143602
-8.45288e-05
-2.19909e-05
3.90696e-05
9.38941e-05
0.000138475
0.000170151
0.000187844
0.000190174
0.000183861
0.000167593
0.000130337
8.95798e-05
5.83611e-05
3.35723e-05
1.39059e-05
-1.03612e-06
-1.20054e-05
-1.9712e-05
-2.47215e-05
-2.75207e-05
-2.85184e-05
-2.77926e-05
-2.53431e-05
-2.42391e-05
-3.25023e-05
-2.14381e-05
2.11388e-05
6.59446e-06
-2.54274e-05
-5.83271e-06
4.06822e-07
9.67267e-09
-3.09338e-11
0.00012606
9.37781e-05
4.05479e-05
-2.11404e-05
-8.15992e-05
-0.000135348
-0.000180139
-0.000215134
-0.000239381
-0.000251278
-0.000248999
-0.00023139
-0.000198717
-0.000152973
-9.77115e-05
-3.75743e-05
2.23235e-05
7.70373e-05
0.000122386
0.000155536
0.000175217
0.000180001
0.000176007
0.000161958
0.000126457
8.56062e-05
5.36516e-05
2.84204e-05
8.37117e-06
-6.92751e-06
-1.82055e-05
-2.61694e-05
-3.13942e-05
-3.4339e-05
-3.54119e-05
-3.49586e-05
-3.30032e-05
-2.95181e-05
-2.76037e-05
-3.52533e-05
-2.31766e-05
1.99838e-05
5.3763e-06
-2.59779e-05
-5.93239e-06
3.9384e-07
9.32456e-09
-3.15991e-11
7.19145e-05
4.85611e-05
9.97774e-06
-3.55251e-05
-8.17049e-05
-0.00012499
-0.000163231
-0.000194242
-0.000215134
-0.000222748
-0.00021473
-0.000190484
-0.000151549
-0.000101388
-4.47822e-05
1.29173e-05
6.65174e-05
0.000111621
0.000145222
0.000165891
0.000171964
0.000169854
0.000157632
0.000122416
8.12034e-05
4.88562e-05
2.30969e-05
2.58677e-06
-1.31029e-05
-2.47306e-05
-3.30081e-05
-3.8501e-05
-4.16684e-05
-4.28877e-05
-4.25036e-05
-4.08116e-05
-3.77925e-05
-3.34017e-05
-3.0785e-05
-3.79182e-05
-2.48077e-05
1.88864e-05
4.05986e-06
-2.65421e-05
-6.01699e-06
3.79408e-07
8.8943e-09
-3.22893e-11
2.92306e-05
1.63614e-05
-5.93896e-06
-3.47488e-05
-6.76341e-05
-0.000102301
-0.000135626
-0.000163231
-0.000180139
-0.000182192
-0.00016739
-0.000136461
-9.26063e-05
-4.0708e-05
1.36152e-05
6.48865e-05
0.000108462
0.000141159
0.000161425
0.000167256
0.000165973
0.000154955
0.000119137
7.72677e-05
4.4655e-05
1.83433e-05
-2.72114e-06
-1.89126e-05
-3.0997e-05
-3.9696e-05
-4.55699e-05
-4.90629e-05
-5.05504e-05
-5.03484e-05
-4.87529e-05
-4.60207e-05
-4.20985e-05
-3.69327e-05
-3.37248e-05
-4.04407e-05
-2.62992e-05
1.78733e-05
2.69132e-06
-2.71041e-05
-6.08592e-06
3.64209e-07
8.40855e-09
-3.29786e-11
2.98317e-06
-1.66462e-07
-8.04182e-06
-2.29382e-05
-4.54892e-05
-7.3588e-05
-0.000102301
-0.00012499
-0.000135349
-0.000129409
-0.000106587
-6.95036e-05
-2.30135e-05
2.7023e-05
7.48317e-05
0.000115539
0.000145796
0.000163927
0.00016756
0.000165076
0.000154235
0.000117912
7.50964e-05
4.18906e-05
1.49745e-05
-6.77275e-06
-2.36298e-05
-3.6342e-05
-4.56253e-05
-5.20378e-05
-5.6015e-05
-5.7916e-05
-5.8055e-05
-5.6703e-05
-5.412e-05
-5.05336e-05
-4.58636e-05
-4.00528e-05
-3.63652e-05
-4.27608e-05
-2.76204e-05
1.69705e-05
1.32842e-06
-2.76446e-05
-6.13925e-06
3.49072e-07
7.90097e-09
-3.36333e-11
-7.19777e-06
-3.57857e-06
-1.79274e-06
-7.65866e-06
-2.32212e-05
-4.54893e-05
-6.76342e-05
-8.17051e-05
-8.15994e-05
-6.49772e-05
-3.35068e-05
8.18764e-06
5.40689e-05
9.80696e-05
0.000135073
0.00016167
0.000176122
0.000175608
0.000168659
0.000156096
0.000120509
7.64091e-05
4.16138e-05
1.39375e-05
-8.72455e-06
-2.64938e-05
-4.00682e-05
-5.01564e-05
-5.73122e-05
-6.19685e-05
-6.44763e-05
-6.51341e-05
-6.42125e-05
-6.19508e-05
-5.85834e-05
-5.43158e-05
-4.90458e-05
-4.27165e-05
-3.86563e-05
-4.4821e-05
-2.87476e-05
1.61997e-05
3.55596e-08
-2.81433e-05
-6.17817e-06
3.34829e-07
7.4065e-09
-3.42285e-11
-6.67064e-06
-3.92057e-07
5.10568e-06
3.17528e-06
-7.65866e-06
-2.29383e-05
-3.47489e-05
-3.55253e-05
-2.11407e-05
7.94867e-06
4.75043e-05
9.13017e-05
0.000132916
0.000166921
0.000189738
0.00020006
0.000195076
0.000180171
0.000162619
0.000129525
8.33421e-05
4.50474e-05
1.62654e-05
-7.69291e-06
-2.67305e-05
-4.14755e-05
-5.26446e-05
-6.07986e-05
-6.63681e-05
-6.97035e-05
-7.10983e-05
-7.08085e-05
-6.9075e-05
-6.61154e-05
-6.21459e-05
-5.7355e-05
-5.16222e-05
-4.48935e-05
-4.05588e-05
-4.65691e-05
-2.96646e-05
1.55772e-05
-1.11979e-06
-2.85804e-05
-6.20462e-06
3.22338e-07
6.96216e-09
-3.47312e-11
-2.62597e-06
2.58803e-06
6.78703e-06
5.1057e-06
-1.79273e-06
-8.04186e-06
-5.9391e-06
9.9775e-06
4.05476e-05
8.20271e-05
0.000127875
0.000170978
0.000205325
0.000226844
0.000234148
0.000227189
0.000203629
0.000178275
0.000149289
9.87938e-05
5.39092e-05
2.33436e-05
-2.55522e-06
-2.34079e-05
-3.97553e-05
-5.23661e-05
-6.18397e-05
-6.86155e-05
-7.3045e-05
-7.54246e-05
-7.60094e-05
-7.50272e-05
-7.26995e-05
-6.92298e-05
-6.48213e-05
-5.96496e-05
-5.35795e-05
-4.65606e-05
-4.20382e-05
-4.79557e-05
-3.0361e-05
1.51136e-05
-2.0707e-06
-2.89372e-05
-6.22132e-06
3.12347e-07
6.59994e-09
-3.51299e-11
-1.91934e-07
2.04475e-06
2.58806e-06
-3.92014e-07
-3.57855e-06
-1.66517e-07
1.63613e-05
4.85608e-05
9.37777e-05
0.00014536
0.000195145
0.000235808
0.000262181
0.00027184
0.000265723
0.000242088
0.00020752
0.00017242
0.000126449
7.53796e-05
3.70564e-05
8.80791e-06
-1.47268e-05
-3.3483e-05
-4.81621e-05
-5.94561e-05
-6.78658e-05
-7.37653e-05
-7.7462e-05
-7.92214e-05
-7.92764e-05
-7.78392e-05
-7.51202e-05
-7.13145e-05
-6.66175e-05
-6.1196e-05
-5.49042e-05
-4.76955e-05
-4.30582e-05
-4.89263e-05
-3.08225e-05
1.48218e-05
-2.74772e-06
-2.91926e-05
-6.23017e-06
3.05636e-07
6.35382e-09
-3.53851e-11
4.15885e-08
-1.91907e-07
-2.62592e-06
-6.67057e-06
-7.19775e-06
2.98311e-06
2.92305e-05
7.19142e-05
0.000126059
0.000183299
0.000234689
0.000273029
0.000293874
0.000295921
0.000281703
0.000248332
0.000207623
0.000167891
0.000113605
6.31511e-05
2.85998e-05
1.38438e-06
-2.09042e-05
-3.85873e-05
-5.24306e-05
-6.30662e-05
-7.09408e-05
-7.63968e-05
-7.97211e-05
-8.11641e-05
-8.09485e-05
-7.92791e-05
-7.63604e-05
-7.23831e-05
-6.75384e-05
-6.19931e-05
-5.5602e-05
-4.82938e-05
-4.35175e-05
-4.93198e-05
-3.11628e-05
1.43788e-05
-3.15564e-06
-2.91853e-05
-6.20017e-06
2.99505e-07
6.09566e-09
-3.54641e-11
)
;

boundaryField
{
    inlet
    {
        type            cyclic;
    }
    outlet
    {
        type            cyclic;
    }
    walls
    {
        type            calculated;
        value           nonuniform List<scalar> 
96
(
-1.48237e-16
-6.08867e-16
-1.18362e-14
-7.19162e-14
-2.35601e-13
-5.04195e-13
-6.40107e-13
-1.02586e-13
1.34233e-12
3.04944e-12
4.21138e-12
4.34155e-12
3.30546e-12
1.28067e-12
-1.41793e-12
-4.47638e-12
-7.65898e-12
-1.08264e-11
-1.39037e-11
-1.65775e-11
-1.84653e-11
-2.03432e-11
-2.21982e-11
-2.4007e-11
-2.57061e-11
-2.72709e-11
-2.86917e-11
-2.99652e-11
-3.11236e-11
-3.21566e-11
-3.30801e-11
-3.38852e-11
-3.46009e-11
-3.52172e-11
-3.57556e-11
-3.62047e-11
-3.65821e-11
-3.68828e-11
-3.71128e-11
-3.72765e-11
-3.73797e-11
-3.74332e-11
-3.74447e-11
-3.74322e-11
-3.74022e-11