/*--------------------------------*- C++ -*----------------------------------*\
| =========                 |                                                 |
| \\      /  F ield         | OpenFOAM: The Open Source CFD Toolbox           |
|  \\    /   O peration     | Version:  2412                                  |
|   \\  /    A nd           | Website:  www.openfoam.com                      |
|    \\/     M anipulation  |                                                 |
\*---------------------------------------------------------------------------*/
FoamFile
{
    version     2.0;
    format      ascii;
    arch        "LSB;label=32;scalar=64";
    class       volScalarField;
    location    "1830";
    object      I4_3;
}
// * * * * * * * * * * * * * * * * * * * * * * * * * * * * * * * * * * * * * //

dimensions      [0 0 0 0 0 0 0];

internalField   nonuniform List<scalar> 
2304
(
-4.46318e-32
-4.43057e-32
-4.33538e-32
-4.18935e-32
-4.01014e-32
-3.80457e-32
-3.58669e-32
-3.36638e-32
-3.15512e-32
-2.96003e-32
-2.78589e-32
-2.63301e-32
-2.49811e-32
-2.37619e-32
-2.25325e-32
-2.12266e-32
-1.97011e-32
-1.79114e-32
-1.57661e-32
-1.33267e-32
-1.0677e-32
-8.00537e-33
-5.47994e-33
-3.32835e-33
-1.72093e-33
-7.10515e-34
-2.11175e-34
-3.29192e-35
-1.04692e-37
4.05455e-35
5.00734e-34
1.86214e-33
4.23544e-33
7.04908e-33
8.92642e-33
8.396e-33
5.43773e-33
2.06973e-33
3.12582e-34
2.11581e-36
-9.62071e-36
-2.25829e-35
-7.23859e-36
-7.02402e-37
-2.17134e-38
-1.39086e-40
-5.74328e-44
-2.78086e-48
2.26449e-25
2.56513e-25
2.87493e-25
3.3748e-25
4.06298e-25
4.93225e-25
5.94518e-25
7.03631e-25
8.10758e-25
9.04993e-25
9.7641e-25
1.01897e-24
1.03166e-24
1.01864e-24
9.90397e-25
9.56139e-25
9.27643e-25
9.13111e-25
9.22645e-25
9.62185e-25
1.03896e-24
1.15687e-24
1.32171e-24
1.53111e-24
1.77107e-24
2.00959e-24
2.19294e-24
2.27799e-24
2.31341e-24
2.51206e-24
2.79475e-24
3.00658e-24
3.05971e-24
2.87396e-24
2.38999e-24
1.65189e-24
8.63539e-25
2.92283e-25
4.61243e-26
9.10633e-28
-2.65221e-28
-1.2365e-27
-4.94949e-28
-5.94373e-29
-2.57034e-30
-2.98475e-32
-1.32593e-35
-5.74456e-44
2.68678e-20
2.85505e-20
3.04727e-20
3.34915e-20
3.75377e-20
4.25345e-20
4.83114e-20
5.46157e-20
6.10884e-20
6.73304e-20
7.29612e-20
7.77226e-20
8.15192e-20
8.44682e-20
8.70217e-20
8.96288e-20
9.29911e-20
9.77461e-20
1.04782e-19
1.14849e-19
1.28775e-19
1.47308e-19
1.71265e-19
2.00766e-19
2.34903e-19
2.71161e-19
3.04749e-19
3.30365e-19
3.48692e-19
3.74378e-19
3.99086e-19
4.08359e-19
3.94632e-19
3.52752e-19
2.81821e-19
1.91175e-19
1.02146e-19
3.82068e-20
8.01032e-21
4.91735e-22
-5.97101e-26
-4.69159e-23
-3.33376e-23
-5.51737e-24
-2.67825e-25
-1.31077e-27
-2.98477e-32
-1.39094e-40
-2.38347e-16
-2.41826e-16
-2.40797e-16
-2.38863e-16
-2.35821e-16
-2.31392e-16
-2.25415e-16
-2.17842e-16
-2.08782e-16
-1.98434e-16
-1.87047e-16
-1.74835e-16
-1.61972e-16
-1.48538e-16
-1.34417e-16
-1.19619e-16
-1.04063e-16
-8.7884e-17
-7.12758e-17
-5.47988e-17
-3.92215e-17
-2.54333e-17
-1.42276e-17
-6.29194e-18
-1.79734e-18
-1.60193e-19
3.61441e-21
6.13801e-19
3.57157e-18
1.07892e-17
2.35196e-17
4.11673e-17
6.11512e-17
7.83732e-17
8.59716e-17
7.87827e-17
5.79291e-17
3.19763e-17
1.16438e-17
1.92848e-18
2.73226e-20
-1.55021e-20
-4.16467e-20
-9.34898e-21
-2.5912e-22
-2.67824e-25
-2.57034e-30
-2.17139e-38
-2.48595e-14
-2.48784e-14
-2.42309e-14
-2.33457e-14
-2.22909e-14
-2.11267e-14
-1.99116e-14
-1.86985e-14
-1.75312e-14
-1.64402e-14
-1.54411e-14
-1.45334e-14
-1.37049e-14
-1.29323e-14
-1.21774e-14
-1.14105e-14
-1.05967e-14
-9.71705e-15
-8.75604e-15
-7.71978e-15
-6.61003e-15
-5.47514e-15
-4.36626e-15
-3.33449e-15
-2.42357e-15
-1.66186e-15
-1.06425e-15
-6.29778e-16
-3.36466e-16
-1.05076e-16
-1.21679e-17
-7.83999e-22
6.02864e-18
3.69783e-17
8.3037e-17
1.19149e-16
1.35028e-16
1.38562e-16
1.33531e-16
8.25027e-17
9.35855e-18
-2.42929e-20
-1.89876e-18
-5.65941e-19
-9.34896e-21
-5.51735e-24
-5.94373e-29
-7.0241e-37
-3.14184e-17
-2.07457e-17
-8.87894e-18
-1.4043e-18
4.48347e-23
2.3441e-18
1.94933e-17
6.69143e-17
1.55398e-16
2.86776e-16
4.53632e-16
6.43186e-16
8.42124e-16
1.04215e-15
1.24647e-15
1.46375e-15
1.71445e-15
2.0223e-15
2.42323e-15
2.95645e-15
3.69801e-15
4.70183e-15
6.01124e-15
7.65663e-15
9.64313e-15
1.19709e-14
1.46383e-14
1.76505e-14
2.05563e-14
2.2065e-14
2.22375e-14
2.1428e-14
1.96837e-14
1.72556e-14
1.45824e-14
1.21054e-14
1.00439e-14
8.32151e-15
6.98302e-15
5.00596e-15
1.23285e-15
1.91844e-17
-2.27252e-18
-1.89876e-18
-4.16465e-20
-3.33375e-23
-4.94948e-28
-7.23864e-36
2.97289e-15
3.25611e-15
3.45221e-15
3.77974e-15
4.25127e-15
4.88743e-15
5.70964e-15
6.73664e-15
7.98048e-15
9.44572e-15
1.11319e-14
1.30438e-14
1.51936e-14
1.76206e-14
2.04355e-14
2.37814e-14
2.79159e-14
3.31771e-14
4.01084e-14
4.93941e-14
6.20362e-14
7.94061e-14
1.03479e-13
1.36853e-13
1.83095e-13
2.47459e-13
3.37592e-13
4.64644e-13
6.34052e-13
7.23987e-13
7.61693e-13
8.04896e-13
8.57355e-13
9.1884e-13
9.85016e-13
1.04177e-12
1.06047e-12
9.99139e-13
8.47999e-13
5.87872e-13
1.56315e-13
7.40509e-15
1.91844e-17
-2.42924e-20
-1.5502e-20
-4.69156e-23
-1.2365e-27
-2.2583e-35
-3.02625e-14
-2.92823e-14
-2.79865e-14
-2.61046e-14
-2.3758e-14
-2.10715e-14
-1.81899e-14
-1.52674e-14
-1.24495e-14
-9.85283e-15
-7.55396e-15
-5.58564e-15
-3.95326e-15
-2.63901e-15
-1.60972e-15
-8.49403e-16
-3.42026e-16
-7.47113e-17
-1.03481e-18
1.97021e-17
3.5024e-16
1.78558e-15
5.92113e-15
1.56956e-14
3.61938e-14
7.59565e-14
1.48353e-13
2.7259e-13
4.73046e-13
7.6456e-13
1.17282e-12
1.72613e-12
2.41539e-12
3.1642e-12
3.82235e-12
4.21368e-12
4.2433e-12
3.95158e-12
3.59999e-12
3.93363e-12
2.094e-12
1.56315e-13
1.23285e-15
9.35858e-18
2.73227e-20
-5.97072e-26
-2.65219e-28
-9.62078e-36
-1.19966e-13
-1.17119e-13
-1.10286e-13
-1.00994e-13
-9.00422e-14
-7.8188e-14
-6.6139e-14
-5.45186e-14
-4.38127e-14
-3.43355e-14
-2.62252e-14
-1.9466e-14
-1.3965e-14
-9.5757e-15
-6.12282e-15
-3.5078e-15
-1.65261e-15
-5.26246e-16
-5.43464e-17
1.56387e-18
3.39326e-16
2.61894e-15
1.03232e-14
3.00479e-14
7.32335e-14
1.5856e-13
3.12455e-13
5.65614e-13
9.43777e-13
1.5384e-12
2.35792e-12
3.30468e-12
4.20184e-12
4.79733e-12
4.88666e-12
4.46807e-12
3.78034e-12
3.1146e-12
2.56293e-12
3.22245e-12
3.93363e-12
5.87871e-13
5.00594e-15
8.25028e-17
1.92848e-18
4.91735e-22
9.10633e-28
2.11576e-36
-8.24108e-14
-7.98301e-14
-7.42903e-14
-6.67201e-14
-5.77648e-14
-4.80906e-14
-3.83575e-14
-2.91757e-14
-2.10331e-14
-1.42414e-14
-8.92136e-15
-5.02705e-15
-2.41661e-15
-8.80123e-16
-1.69135e-16
-1.61158e-18
4.85454e-17
7.4961e-16
3.62767e-15
1.16581e-14
3.06911e-14
7.1256e-14
1.52153e-13
3.04239e-13
5.74134e-13
1.02781e-12
1.73791e-12
2.7578e-12
4.08342e-12
5.60677e-12
7.03326e-12
7.96588e-12
8.07068e-12
7.26581e-12
5.84126e-12
4.32079e-12
3.1564e-12
2.48033e-12
2.15452e-12
2.56293e-12
3.6e-12
8.47997e-13
6.98299e-15
1.33531e-16
1.16438e-17
8.01031e-21
4.61242e-26
3.12579e-34
-1.12634e-13
-1.085e-13
-1.00938e-13
-9.04795e-14
-7.79454e-14
-6.42543e-14
-5.03773e-14
-3.72658e-14
-2.57197e-14
-1.62773e-14
-9.16593e-15
-4.32462e-15
-1.4972e-15
-2.5408e-16
-5.99823e-19
1.36738e-16
1.67267e-15
7.43484e-15
2.29176e-14
5.8258e-14
1.32575e-13
2.78003e-13
5.4867e-13
1.02493e-12
1.81123e-12
3.0291e-12
4.75369e-12
6.93624e-12
9.33935e-12
1.1511e-11
1.27384e-11
1.24808e-11
1.07678e-11
8.22329e-12
5.71449e-12
3.8607e-12
2.84712e-12
2.5226e-12
2.48033e-12
3.1146e-12
3.95158e-12
9.99137e-13
8.32147e-15
1.38562e-16
3.19763e-17
3.82068e-20
2.92282e-25
2.06971e-33
-1.71896e-13
-1.65507e-13
-1.53814e-13
-1.37566e-13
-1.1798e-13
-9.64732e-14
-7.46109e-14
-5.39783e-14
-3.59476e-14
-2.1468e-14
-1.0955e-14
-4.29926e-15
-9.80681e-16
-3.19386e-17
7.4796e-17
1.89991e-15
1.01314e-14
3.34652e-14
8.8413e-14
2.03772e-13
4.31583e-13
8.51156e-13
1.58445e-12
2.78372e-12
4.59098e-12
7.09744e-12
1.01835e-11
1.34149e-11
1.60521e-11
1.727e-11
1.64409e-11
1.37347e-11
1.01238e-11
6.76962e-12
4.38567e-12
3.07496e-12
2.63215e-12
2.84712e-12
3.15641e-12
3.78034e-12
4.2433e-12
1.06047e-12
1.00438e-14
1.35029e-16
5.79291e-17
1.02146e-19
8.63536e-25
5.43769e-33
-2.38247e-13
-2.29176e-13
-2.12237e-13
-1.88675e-13
-1.60244e-13
-1.29046e-13
-9.74678e-14
-6.79755e-14
-4.27232e-14
-2.31942e-14
-9.97856e-15
-2.72744e-15
-1.96435e-16
2.81306e-17
2.12345e-15
1.35293e-14
4.80114e-14
1.30203e-13
3.05144e-13
6.44685e-13
1.27075e-12
2.33991e-12
4.0553e-12
6.59262e-12
9.96009e-12
1.39372e-11
1.78963e-11
2.0876e-11
2.18552e-11
2.03193e-11
1.65868e-11
1.19242e-11
7.76615e-12
4.90271e-12
3.3653e-12
2.83978e-12
3.07496e-12
3.86071e-12
4.3208e-12
4.46807e-12
4.21368e-12
1.04177e-12
1.21054e-14
1.1915e-16
7.87827e-17
1.91175e-19
1.65189e-24
8.39593e-33
-3.0807e-13
-2.95641e-13
-2.72365e-13
-2.40014e-13
-2.0106e-13
-1.58517e-13
-1.15879e-13
-7.67856e-14
-4.44068e-14
-2.0844e-14
-6.6944e-15
-8.12695e-16
1.29527e-18
1.97836e-15
1.64178e-14
6.35804e-14
1.8037e-13
4.29017e-13
9.17265e-13
1.79483e-12
3.29064e-12
5.62012e-12
8.95815e-12
1.32799e-11
1.81452e-11
2.28874e-11
2.59584e-11
2.62695e-11
2.35663e-11
1.88425e-11
1.33969e-11
8.60921e-12
5.34861e-12
3.62537e-12
3.06041e-12
3.3653e-12
4.38568e-12
5.71449e-12
5.84126e-12
4.88666e-12
3.82235e-12
9.85014e-13
1.45824e-14
8.3038e-17
8.59716e-17
2.8182e-19
2.38998e-24
8.92634e-33
-3.79235e-13
-3.62687e-13
-3.31801e-13
-2.89007e-13
-2.37762e-13
-1.82314e-13
-1.27632e-13
-7.88862e-14
-4.04918e-14
-1.51086e-14
-2.75519e-15
-9.48663e-18
1.36463e-15
1.71361e-14
7.63431e-14
2.29486e-13
5.65227e-13
1.21948e-12
2.40815e-12
4.37219e-12
7.40758e-12
1.16742e-11
1.73413e-11
2.36746e-11
2.90185e-11
3.1738e-11
3.10653e-11
2.70622e-11
2.08126e-11
1.41876e-11
8.85867e-12
5.53574e-12
3.77648e-12
3.22052e-12
3.62537e-12
4.90272e-12
6.76964e-12
8.2233e-12
7.26581e-12
4.79733e-12
3.1642e-12
9.18839e-13
1.72555e-14
3.69788e-17
7.83733e-17
3.5275e-19
2.87394e-24
7.04901e-33
-4.45248e-13
-4.23905e-13
-3.84233e-13
-3.29581e-13
-2.64765e-13
-1.95669e-13
-1.29174e-13
-7.23473e-14
-3.09422e-14
-7.65937e-15
-2.82376e-16
5.62163e-16
1.54008e-14
8.23429e-14
2.70783e-13
6.9306e-13
1.53328e-12
3.03387e-12
5.52768e-12
9.32758e-12
1.51046e-11
2.21742e-11
2.92649e-11
3.48177e-11
3.71154e-11
3.38873e-11
2.77403e-11
2.05874e-11
1.41043e-11
8.94556e-12
5.39408e-12
3.56286e-12
3.19251e-12
3.77649e-12
5.34862e-12
7.76616e-12
1.01238e-11
1.07679e-11
8.07068e-12
4.20184e-12
2.41539e-12
8.57355e-13
1.96836e-14
6.02878e-18
6.11513e-17
3.9463e-19
3.05969e-24
4.23539e-33
-4.9828e-13
-4.71622e-13
-4.22334e-13
-3.55023e-13
-2.76328e-13
-1.94266e-13
-1.18103e-13
-5.70715e-14
-1.7922e-14
-1.73035e-15
6.95294e-17
1.13591e-14
8.08734e-14
2.94244e-13
7.99206e-13
1.8079e-12
3.63459e-12
6.71156e-12
1.18138e-11
1.87402e-11
2.66891e-11
3.44528e-11
3.78923e-11
3.65634e-11
3.18751e-11
2.48492e-11
1.72877e-11
1.08428e-11
6.41473e-12
4.01735e-12
3.22593e-12
2.9624e-12
3.56287e-12
5.53576e-12
8.60923e-12
1.19242e-11
1.37347e-11
1.24808e-11
7.96588e-12
3.30468e-12
1.72613e-12
8.04895e-13
2.1428e-14
-7.83653e-22
4.11674e-17
4.08358e-19
3.00656e-24
1.86212e-33
-5.30426e-13
-4.98231e-13
-4.39138e-13
-3.594e-13
-2.68041e-13
-1.75758e-13
-9.46314e-14
-3.59638e-14
-6.03409e-15
-1.11253e-18
6.52491e-15
7.05417e-14
2.9854e-13
8.60509e-13
2.02231e-12
4.21214e-12
8.1869e-12
1.41523e-11
2.19031e-11
3.06906e-11
3.51105e-11
3.64518e-11
3.41246e-11
2.85508e-11
2.11255e-11
1.3898e-11
8.09716e-12
4.35595e-12
2.4066e-12
1.61086e-12
1.78325e-12
3.22593e-12
5.3941e-12
8.8587e-12
1.33969e-11
1.65868e-11
1.64409e-11
1.27384e-11
7.03325e-12
2.35792e-12
1.17282e-12
7.61692e-13
2.22374e-14
-1.21677e-17
2.35197e-17
3.99085e-19
2.79474e-24
5.00725e-34
-5.34676e-13
-4.97196e-13
-4.29082e-13
-3.3866e-13
-2.37965e-13
-1.40915e-13
-6.25521e-14
-1.51255e-14
-3.32465e-16
2.68898e-15
5.46009e-14
2.78699e-13
8.75819e-13
2.17353e-12
4.88773e-12
9.42867e-12
1.60305e-11
2.40763e-11
2.95772e-11
3.31919e-11
3.35336e-11
3.02819e-11
2.451e-11
1.74891e-11
1.08283e-11
5.76771e-12
2.70639e-12
1.27791e-12
8.10362e-13
9.23752e-13
1.61086e-12
4.01736e-12
8.94559e-12
1.41876e-11
1.88425e-11
2.03193e-11
1.727e-11
1.1511e-11
5.60676e-12
1.5384e-12
7.6456e-13
7.23985e-13
2.20649e-14
-1.05075e-16
1.07893e-17
3.74377e-19
2.51204e-24
4.05438e-35
-5.06661e-13
-4.648e-13
-3.89737e-13
-2.92333e-13
-1.88253e-13
-9.49766e-14
-2.97825e-14
-2.24963e-15
5.86605e-16
3.78392e-14
2.42587e-13
8.45324e-13
2.35198e-12
5.36371e-12
1.0279e-11
1.68406e-11
2.245e-11
2.73564e-11
3.00698e-11
2.95297e-11
2.63441e-11
2.06746e-11
1.39966e-11
7.94881e-12
3.73191e-12
1.46409e-12
5.3511e-13
2.69612e-13
3.1765e-13
8.10364e-13
2.40661e-12
6.41475e-12
1.41044e-11
2.08127e-11
2.35663e-11
2.18552e-11
1.60521e-11
9.33933e-12
4.08341e-12
9.43774e-13
4.73046e-13
6.34052e-13
2.05562e-14
-3.36465e-16
3.57161e-18
3.4869e-19
2.31339e-24
-1.04732e-37
-4.45886e-13
-4.0138e-13
-3.23047e-13
-2.2474e-13
-1.26176e-13
-4.79983e-14
-6.76475e-15
1.7308e-17
2.29556e-14
1.98779e-13
7.86584e-13
2.4137e-12
5.56609e-12
1.05478e-11
1.52831e-11
2.02708e-11
2.43166e-11
2.6249e-11
2.58033e-11
2.23865e-11
1.67822e-11
1.05903e-11
5.49889e-12
2.23376e-12
6.80597e-13
1.63665e-13
5.10316e-14
6.35788e-14
2.69613e-13
1.27792e-12
4.35597e-12
1.08429e-11
2.05874e-11
2.70623e-11
2.62695e-11
2.0876e-11
1.34149e-11
6.93623e-12
2.75779e-12
5.65612e-13
2.7259e-13
4.64644e-13
1.76504e-14
-6.29779e-16
6.13816e-19
3.30364e-19
2.27797e-24
-3.29213e-35
-3.57014e-13
-3.12574e-13
-2.36483e-13
-1.45902e-13
-6.43279e-14
-1.31942e-14
-2.01492e-17
1.23214e-14
1.54436e-13
7.1884e-13
2.36442e-12
5.55165e-12
9.37882e-12
1.35277e-11
1.76671e-11
2.09601e-11
2.27406e-11
2.18115e-11
1.81534e-11
1.2886e-11
7.64642e-12
3.56597e-12
1.20461e-12
2.51626e-13
2.51641e-14
1.35098e-15
2.21001e-15
5.1032e-14
5.35114e-13
2.70641e-12
8.09719e-12
1.72878e-11
2.77403e-11
3.10652e-11
2.59584e-11
1.78963e-11
1.01835e-11
4.75367e-12
1.73791e-12
3.12453e-13
1.48352e-13
3.37592e-13
1.46382e-14
-1.06425e-15
3.61493e-21
3.04747e-19
2.19291e-24
-2.11182e-34
-2.50834e-13
-2.10178e-13
-1.43598e-13
-7.13468e-14
-1.85965e-14
-3.10667e-16
6.17213e-15
1.16617e-13
6.27363e-13
2.21412e-12
5.28172e-12
8.21655e-12
1.16299e-11
1.49666e-11
1.78902e-11
1.896e-11
1.75263e-11
1.3984e-11
9.47979e-12
5.19143e-12
2.1358e-12
5.57161e-13
6.00526e-14
1.48431e-16
-2.37729e-15
-1.77708e-15
1.35102e-15
1.63666e-13
1.4641e-12
5.76773e-12
1.3898e-11
2.48492e-11
3.38873e-11
3.1738e-11
2.28874e-11
1.39371e-11
7.09742e-12
3.02909e-12
1.0278e-12
1.58559e-13
7.59564e-14
2.47459e-13
1.19708e-14
-1.66187e-15
-1.60186e-19
2.71159e-19
2.00956e-24
-7.10533e-34
-1.44129e-13
-1.11716e-13
-6.28323e-14
-1.90995e-14
-6.64096e-16
3.35781e-15
8.90453e-14
5.35459e-13
2.02221e-12
4.70724e-12
7.15098e-12
9.77407e-12
1.25944e-11
1.47017e-11
1.50368e-11
1.34005e-11
1.02988e-11
6.56221e-12
3.28115e-12
1.13415e-12
1.99781e-13
4.04658e-15
-5.32136e-15
-4.71015e-14
-4.46888e-14
-2.37723e-15
2.51646e-14
6.80603e-13
3.73193e-12
1.08283e-11
2.11255e-11
3.18751e-11
3.71153e-11
2.90185e-11
1.81452e-11
9.96006e-12
4.59096e-12
1.81123e-12
5.7413e-13
7.32329e-14
3.61937e-14
1.83095e-13
9.643e-15
-2.42358e-15
-1.79731e-18
2.34902e-19
1.77104e-24
-1.72096e-33
-5.74553e-14
-3.75382e-14
-1.28258e-14
-4.55278e-16
2.70744e-15
7.35107e-14
4.61313e-13
1.83452e-12
4.24822e-12
6.21535e-12
8.17067e-12
1.03332e-11
1.15645e-11
1.13718e-11
9.79222e-12
7.13472e-12
4.22877e-12
1.86318e-12
5.02052e-13
4.14785e-14
-3.01699e-16
-6.03036e-14
-1.90186e-13
-1.876e-13
-4.71011e-14
1.48448e-16
2.51629e-13
2.23378e-12
7.94885e-12
1.74892e-11
2.85508e-11
3.65634e-11
3.48176e-11
2.36746e-11
1.32799e-11
6.59259e-12
2.78371e-12
1.02493e-12
3.04237e-13
3.00475e-14
1.56956e-14
1.36853e-13
7.65651e-15
-3.3345e-15
-6.29185e-18
2.00765e-19
1.53108e-24
-3.32841e-33
-9.13481e-15
-3.19397e-15
-1.66841e-17
4.30319e-15
7.20631e-14
4.23506e-13
1.69099e-12
3.91685e-12
5.45238e-12
6.87781e-12
8.31235e-12
8.83682e-12
8.30159e-12
6.75343e-12
4.60665e-12
2.45989e-12
9.05078e-13
1.58208e-13
1.22355e-15
-2.46802e-14
-2.1932e-13
-4.72865e-13
-4.69985e-13
-1.90185e-13
-5.32118e-15
6.00537e-14
1.20462e-12
5.49891e-12
1.39967e-11
2.45101e-11
3.41247e-11
3.78923e-11
2.92648e-11
1.73412e-11
8.95811e-12
4.05528e-12
1.58445e-12
5.48667e-13
1.52151e-13
1.0323e-14
5.92109e-15
1.03479e-13
6.01113e-15
-4.36628e-15
-1.42275e-17
1.71264e-19
1.32168e-24
-5.47999e-33
2.65303e-18
6.83299e-16
1.27205e-14
9.14131e-14
4.46103e-13
1.63939e-12
3.72062e-12
4.90037e-12
5.83202e-12
6.62805e-12
6.5984e-12
5.82279e-12
4.39444e-12
2.70574e-12
1.2411e-12
3.36386e-13
2.22776e-14
-2.50812e-15
-1.36872e-13
-5.3417e-13
-9.33515e-13
-9.24728e-13
-4.72863e-13
-6.03026e-14
4.04677e-15
5.57166e-13
3.56599e-12
1.05903e-11
2.06746e-11
3.0282e-11
3.64518e-11
3.44527e-11
2.21741e-11
1.16742e-11
5.6201e-12
2.3399e-12
8.5115e-13
2.78001e-13
7.12553e-14
2.61887e-15
1.78557e-15
7.9406e-14
4.70173e-15
-5.47516e-15
-2.5433e-17
1.47306e-19
1.15685e-24
-8.00551e-33
2.33931e-14
5.08847e-14
1.56671e-13
5.78885e-13
1.7501e-12
3.669e-12
4.57204e-12
5.08521e-12
5.37929e-12
4.92609e-12
3.95169e-12
2.67474e-12
1.41395e-12
4.99928e-13
7.29318e-14
3.7378e-18
-5.63386e-14
-4.09659e-13
-1.06254e-12
-1.61842e-12
-1.58991e-12
-9.33512e-13
-2.19318e-13
-3.01665e-16
1.99784e-13
2.13581e-12
7.64645e-12
1.67823e-11
2.63442e-11
3.35337e-11
3.51105e-11
2.6689e-11
1.51045e-11
7.40755e-12
3.29062e-12
1.27074e-12
4.31579e-13
1.32574e-13
3.06907e-14
3.39307e-16
3.50235e-16
6.20361e-14
3.69792e-15
-6.61005e-15
-3.92212e-17
1.28774e-19
1.03894e-24
-1.06771e-32
2.51848e-13
4.28309e-13
9.64247e-13
2.17302e-12
3.80347e-12
4.49836e-12
4.67888e-12
4.56525e-12
3.7626e-12
2.65529e-12
1.52164e-12
6.29818e-13
1.36045e-13
2.57133e-15
-1.65517e-14
-2.57502e-13
-9.25875e-13
-1.87482e-12
-2.58699e-12
-2.51679e-12
-1.61842e-12
-5.34167e-13
-2.46796e-14
4.14794e-14
1.13416e-12
5.19146e-12
1.2886e-11
2.23866e-11
2.95298e-11
3.3192e-11
3.06905e-11
1.87401e-11
9.32754e-12
4.37217e-12
1.79482e-12
6.44681e-13
2.0377e-13
5.82573e-14
1.1658e-14
1.56337e-18
1.97015e-17
4.93941e-14
2.95637e-15
-7.7198e-15
-5.47983e-17
1.14848e-19
9.6216e-25
-1.33269e-32
1.4662e-12
2.02184e-12
3.3272e-12
4.30048e-12
4.79768e-12
4.70443e-12
4.20645e-12
3.06264e-12
1.83313e-12
8.27776e-13
2.24879e-13
1.44953e-14
-2.7666e-15
-1.45982e-13
-7.11217e-13
-1.77806e-12
-3.05241e-12
-3.91311e-12
-3.7716e-12
-2.58698e-12
-1.06253e-12
-1.3687e-13
1.22365e-15
5.02058e-13
3.28117e-12
9.47984e-12
1.81535e-11
2.58034e-11
3.00699e-11
2.95773e-11
2.1903e-11
1.18138e-11
5.52766e-12
2.40814e-12
9.1726e-13
3.05142e-13
8.84121e-14
2.29173e-14
3.62758e-15
-5.4352e-17
-1.0349e-18
4.01084e-14
2.42316e-15
-8.75608e-15
-7.12753e-17
1.04781e-19
9.22627e-25
-1.57661e-32
4.7324e-12
5.12583e-12
5.66594e-12
5.84867e-12
5.41545e-12
4.40505e-12
2.81269e-12
1.39071e-12
4.57197e-13
5.96372e-14
-2.67265e-19
-6.69202e-14
-4.98388e-13
-1.51544e-12
-3.05385e-12
-4.67789e-12
-5.67641e-12
-5.43217e-12
-3.9131e-12
-1.87481e-12
-4.09655e-13
-2.50797e-15
1.5821e-13
1.8632e-12
6.56224e-12
1.39841e-11
2.18116e-11
2.62491e-11
2.73565e-11
2.40764e-11
1.41522e-11
6.71152e-12
3.03386e-12
1.21947e-12
4.29014e-13
1.30202e-13
3.34648e-14
7.43469e-15
7.49582e-16
-5.26269e-16
-7.47124e-17
3.31771e-14
2.02224e-15
-9.71708e-15
-8.78834e-17
9.77452e-20
9.13086e-25
-1.79118e-32
8.95008e-12
8.9367e-12
8.44347e-12
7.42352e-12
5.46312e-12
3.09913e-12
1.27595e-12
2.94312e-13
1.11249e-14
-1.06346e-14
-2.70918e-13
-1.13785e-12
-2.72392e-12
-4.80515e-12
-6.80649e-12
-7.94118e-12
-7.57193e-12
-5.67641e-12
-3.0524e-12
-9.2587e-13
-5.63375e-14
2.22783e-14
9.05087e-13
4.22879e-12
1.02989e-11
1.75264e-11
2.27407e-11
2.43167e-11
2.24501e-11
1.60304e-11
8.18685e-12
3.63457e-12
1.53327e-12
5.65224e-13
1.80368e-13
4.80109e-14
1.01312e-14
1.67262e-15
4.85411e-17
-1.65266e-15
-3.42029e-16
2.79159e-14
1.71439e-15
-1.05968e-14
-1.04062e-16
9.29903e-20
9.27626e-25
-1.9701e-32
1.53142e-11
1.41879e-11
1.17263e-11
8.00722e-12
4.2256e-12
1.54236e-12
2.73192e-13
2.15544e-15
-5.30476e-14
-6.03964e-13
-2.02556e-12
-4.2893e-12
-6.99125e-12
-9.41769e-12
-1.07142e-11
-1.02285e-11
-7.94118e-12
-4.67788e-12
-1.77806e-12
-2.57499e-13
3.73963e-18
3.36391e-13
2.45991e-12
7.13477e-12
1.34006e-11
1.89601e-11
2.09602e-11
2.0271e-11
1.68407e-11
9.42862e-12
4.21211e-12
1.8079e-12
6.93057e-13
2.29485e-13
6.358e-14
1.35291e-14
1.89987e-15
1.36731e-16
-1.61194e-18
-3.50787e-15
-8.49406e-16
2.37814e-14
1.4637e-15
-1.14105e-14
-1.19618e-16
8.96279e-20
9.56113e-25
-2.1227e-32
2.23549e-11
1.87624e-11
1.28373e-11
6.83064e-12
2.46437e-12
4.19046e-13
2.52409e-15
-8.98068e-14
-9.32896e-13
-2.96129e-12
-5.98934e-12
-9.40304e-12
-1.23401e-11
-1.38794e-11
-1.33483e-11
-1.07142e-11
-6.80649e-12
-3.05384e-12
-7.11214e-13
-1.65512e-14
7.29332e-14
1.24111e-12
4.60669e-12
9.79229e-12
1.50369e-11
1.78904e-11
1.76672e-11
1.52832e-11
1.02789e-11
4.8877e-12
2.0223e-12
7.99204e-13
2.70782e-13
7.63427e-14
1.64176e-14
2.12341e-15
7.47915e-17
-5.99991e-19
-1.69143e-16
-6.12292e-15
-1.60972e-15
2.04355e-14
1.24643e-15
-1.21774e-14
-1.34416e-16
8.70212e-20
9.90383e-25
-2.25323e-32
2.59137e-11
2.00883e-11
1.1673e-11
4.65088e-12
9.43207e-13
1.9734e-14
-6.74573e-14
-1.04222e-12
-3.57968e-12
-7.3776e-12
-1.15864e-11
-1.51655e-11
-1.71105e-11
-1.6708e-11
-1.38794e-11
-9.41769e-12
-4.80515e-12
-1.51543e-12
-1.45981e-13
2.57145e-15
4.99934e-13
2.70576e-12
6.75348e-12
1.13719e-11
1.47018e-11
1.49667e-11
1.35278e-11
1.05479e-11
5.36368e-12
2.17352e-12
8.60508e-13
2.94244e-13
8.23427e-14
1.7136e-14
1.97834e-15
2.81291e-17
-3.19402e-17
-2.54086e-16
-8.80138e-16
-9.5758e-15
-2.63901e-15
1.76206e-14
1.04212e-15
-1.29323e-14
-1.48537e-16
8.44677e-20
1.01862e-24
-2.37621e-32
2.53796e-11
1.80221e-11
8.65625e-12
2.3482e-12
1.58071e-13
-1.21878e-14
-7.94175e-13
-3.48062e-12
-7.84701e-12
-1.28368e-11
-1.71955e-11
-1.97914e-11
-1.98243e-11
-1.71106e-11
-1.23401e-11
-6.99126e-12
-2.72392e-12
-4.98387e-13
-2.76652e-15
1.36047e-13
1.41397e-12
4.39448e-12
8.30166e-12
1.15646e-11
1.25945e-11
1.163e-11
9.37889e-12
5.56606e-12
2.35196e-12
8.75818e-13
2.9854e-13
8.08733e-14
1.54008e-14
1.36462e-15
1.29517e-18
-1.96438e-16
-9.80691e-16
-1.49721e-15
-2.41663e-15
-1.39651e-14
-3.95324e-15
1.51936e-14
8.42101e-16
-1.37049e-14
-1.61971e-16
8.1519e-20
1.03165e-24
-2.4981e-32
2.03529e-11
1.31122e-11
4.99833e-12
7.61099e-13
5.48956e-16
-3.35748e-13
-2.54112e-12
-6.91148e-12
-1.23888e-11
-1.75285e-11
-2.10212e-11
-2.19032e-11
-1.97914e-11
-1.51656e-11
-9.40306e-12
-4.28931e-12
-1.13785e-12
-6.692e-14
1.44955e-14
6.29824e-13
2.67477e-12
5.82284e-12
8.83691e-12
1.03333e-11
9.77416e-12
8.2166e-12
5.55162e-12
2.41369e-12
8.45324e-13
2.78699e-13
7.0542e-14
1.13592e-14
5.62169e-16
-9.48644e-18
-8.12693e-16
-2.72744e-15
-4.29925e-15
-4.32463e-15
-5.02706e-15
-1.9466e-14
-5.58561e-15
1.30439e-14
6.43176e-16
-1.45334e-14
-1.74834e-16
7.77223e-20
1.01895e-24
-2.63307e-32
1.29264e-11
7.43145e-12
2.09103e-12
1.07204e-13
-3.76171e-14
-1.21089e-12
-4.69014e-12
-9.901e-12
-1.5438e-11
-1.98491e-11
-2.19441e-11
-2.10212e-11
-1.71955e-11
-1.15865e-11
-5.98936e-12
-2.02556e-12
-2.70919e-13
-2.67237e-19
2.24881e-13
1.52166e-12
3.95172e-12
6.59846e-12
8.31242e-12
8.17074e-12
7.15103e-12
5.28175e-12
2.36441e-12
7.86579e-13
2.42588e-13
5.46011e-14
6.52495e-15
6.9531e-17
-2.82373e-16
-2.75518e-15
-6.69438e-15
-9.97854e-15
-1.0955e-14
-9.16591e-15
-8.92136e-15
-2.62253e-14
-7.55391e-15
1.1132e-14
4.53623e-16
-1.54411e-14
-1.87045e-16
7.29613e-20
9.76401e-25
-2.78589e-32
6.15859e-12
3.07142e-12
5.51923e-13
5.02278e-16
-2.74332e-13
-2.16717e-12
-6.04767e-12
-1.1052e-11
-1.58658e-11
-1.91572e-11
-1.98491e-11
-1.75286e-11
-1.28368e-11
-7.37764e-12
-2.96131e-12
-6.03968e-13
-1.06348e-14
5.96372e-14
8.2778e-13
2.65531e-12
4.92613e-12
6.62811e-12
6.87786e-12
6.21539e-12
4.70726e-12
2.21411e-12
7.18836e-13
1.98779e-13
3.78394e-14
2.68903e-15
-1.11231e-18
-1.73032e-15
-7.65931e-15
-1.51085e-14
-2.08438e-14
-2.3194e-14
-2.14678e-14
-1.62772e-14
-1.42414e-14
-3.43355e-14
-9.85275e-15
9.44579e-15
2.86773e-16
-1.64401e-14
-1.98432e-16
6.73305e-20
9.04981e-25
-2.96007e-32
2.00322e-12
8.24715e-13
6.66662e-14
-9.44805e-15
-5.43322e-13
-2.47947e-12
-5.84551e-12
-9.95691e-12
-1.37173e-11
-1.58658e-11
-1.54381e-11
-1.23889e-11
-7.84705e-12
-3.5797e-12
-9.32904e-13
-5.30486e-14
1.11247e-14
4.57197e-13
1.83313e-12
3.76262e-12
5.37932e-12
5.83206e-12
5.4524e-12
4.24823e-12
2.0222e-12
6.27359e-13
1.54436e-13
2.29557e-14
5.86621e-16
-3.32454e-16
-6.03402e-15
-1.79219e-14
-3.0942e-14
-4.04915e-14
-4.44065e-14
-4.2723e-14
-3.59473e-14
-2.57196e-14
-2.1033e-14
-4.38126e-14
-1.24493e-14
7.98057e-15
1.554e-16
-1.75311e-14
-2.0878e-16
6.10886e-20
8.10747e-25
-3.15517e-32
3.7192e-13
1.14516e-13
9.93338e-16
-4.48339e-14
-5.45436e-13
-1.95267e-12
-4.34922e-12
-7.32876e-12
-9.95692e-12
-1.1052e-11
-9.90104e-12
-6.91152e-12
-3.48064e-12
-1.04223e-12
-8.98086e-14
2.15532e-15
2.94311e-13
1.39071e-12
3.06265e-12
4.56527e-12
5.08523e-12
4.90038e-12
3.91685e-12
1.83451e-12
5.35455e-13
1.16616e-13
1.23215e-14
1.73091e-17
-2.2496e-15
-1.51253e-14
-3.59636e-14
-5.70711e-14
-7.23468e-14
-7.88856e-14
-7.6785e-14
-6.7975e-14
-5.3978e-14
-3.72655e-14
-2.91755e-14
-5.45183e-14
-1.52673e-14
6.73672e-15
6.69164e-17
-1.86984e-14
-2.1784e-16
5.46157e-20
7.03616e-25
-3.36649e-32
2.49756e-14
4.3799e-15
-2.09475e-16
-4.19586e-14
-3.09383e-13
-1.07064e-12
-2.49474e-12
-4.34922e-12
-5.84553e-12
-6.0477e-12
-4.69017e-12
-2.54115e-12
-7.94184e-13
-6.74591e-14
2.52392e-15
2.73189e-13
1.27595e-12
2.81269e-12
4.20646e-12
4.67889e-12
4.57204e-12
3.7206e-12
1.69098e-12
4.61311e-13
8.90449e-14
6.17212e-15
-2.0149e-17
-6.76473e-15
-2.97824e-14
-6.25519e-14
-9.46311e-14
-1.18102e-13
-1.29174e-13
-1.27631e-13
-1.15878e-13
-9.74673e-14
-7.46105e-14
-5.0377e-14
-3.83573e-14
-6.61388e-14
-1.81897e-14
5.70971e-15
1.94938e-17
-1.99116e-14
-2.25413e-16
4.83118e-20
5.94515e-25
-3.58671e-32
2.65483e-17
-4.61259e-21
-5.20072e-16
-1.20693e-14
-9.41295e-14
-3.98494e-13
-1.07064e-12
-1.95267e-12
-2.47948e-12
-2.16719e-12
-1.2109e-12
-3.35754e-13
-1.21884e-14
1.97333e-14
4.19042e-13
1.54235e-12
3.09913e-12
4.40505e-12
4.70443e-12
4.49835e-12
3.66898e-12
1.63938e-12
4.23504e-13
7.35104e-14
3.35781e-15
-3.10667e-16
-1.31942e-14
-4.79984e-14
-9.49766e-14
-1.40915e-13
-1.75757e-13
-1.94265e-13
-1.95668e-13
-1.82313e-13
-1.58516e-13
-1.29045e-13
-9.64727e-14
-6.42539e-14
-4.80904e-14
-7.81878e-14
-2.10713e-14
4.88749e-15
2.34424e-18
-2.11266e-14
-2.31391e-16
4.25348e-20
4.93221e-25
-3.8046e-32
-3.72902e-16
-4.58277e-17
-5.76175e-18
-4.49219e-16
-1.25214e-14
-9.41297e-14
-3.09384e-13
-5.4544e-13
-5.43327e-13
-2.74336e-13
-3.76184e-14
5.48879e-16
1.58068e-13
9.43199e-13
2.46436e-12
4.22559e-12
5.46312e-12
5.41546e-12
4.79767e-12
3.80344e-12
1.7501e-12
4.46103e-13
7.2063e-14
2.70744e-15
-6.64093e-16
-1.85965e-14
-6.4328e-14
-1.26177e-13
-1.88253e-13
-2.37965e-13
-2.68041e-13
-2.76328e-13
-2.64764e-13
-2.37761e-13
-2.01059e-13
-1.60243e-13
-1.17979e-13
-7.7945e-14
-5.77645e-14
-9.00419e-14
-2.37578e-14
4.25133e-15
4.49647e-23
-2.22908e-14
-2.35819e-16
3.75379e-20
4.06292e-25
-4.01018e-32
-2.96826e-16
-6.02624e-20
1.33095e-16
3.20145e-17
-4.49218e-16
-1.20693e-14
-4.1959e-14
-4.48347e-14
-9.44845e-15
5.02208e-16
1.07201e-13
7.6109e-13
2.34818e-12
4.65087e-12
6.83063e-12
8.00722e-12
7.42353e-12
5.84866e-12
4.30046e-12
2.17302e-12
5.78885e-13
9.14132e-14
4.30322e-15
-4.55272e-16
-1.90995e-14
-7.13468e-14
-1.45902e-13
-2.2474e-13
-2.92333e-13
-3.3866e-13
-3.594e-13
-3.55022e-13
-3.29581e-13
-2.89007e-13
-2.40014e-13
-1.88674e-13
-1.37566e-13
-9.04793e-14
-6.67199e-14
-1.00993e-13
-2.61044e-14
3.7798e-15
-1.40415e-18
-2.33456e-14
-2.38862e-16
3.34913e-20
3.37468e-25
-4.18948e-32
-1.8108e-17
1.73344e-17
3.12637e-16
1.33096e-16
-5.76166e-18
-5.2008e-16
-2.09489e-16
9.93265e-16
6.66646e-14
5.51916e-13
2.09102e-12
4.9983e-12
8.65622e-12
1.1673e-11
1.28372e-11
1.17263e-11
8.44348e-12
5.66593e-12
3.3272e-12
9.64249e-13
1.56671e-13
1.27205e-14
-1.66835e-17
-1.28258e-14
-6.28325e-14
-1.43599e-13
-2.36484e-13
-3.23047e-13
-3.89737e-13
-4.29082e-13
-4.39138e-13
-4.22334e-13
-3.84233e-13
-3.31802e-13
-2.72366e-13
-2.12238e-13
-1.53814e-13
-1.00938e-13
-7.42903e-14
-1.10286e-13
-2.79864e-14
3.45225e-15
-8.87869e-18
-2.42308e-14
-2.40795e-16
3.04728e-20
2.87488e-25
-4.33541e-32
-7.07059e-21
8.54915e-18
1.7335e-17
-6.0243e-20
-4.58271e-17
-4.6172e-21
4.37977e-15
1.14514e-13
8.24706e-13
3.0714e-12
7.43142e-12
1.31122e-11
1.8022e-11
2.00883e-11
1.87624e-11
1.41879e-11
8.93671e-12
5.12582e-12
2.02184e-12
4.28312e-13
5.08849e-14
6.83312e-16
-3.19396e-15
-3.75382e-14
-1.11716e-13
-2.10178e-13
-3.12574e-13
-4.01381e-13
-4.64801e-13
-4.97196e-13
-4.98231e-13
-4.71623e-13
-4.23906e-13
-3.62688e-13
-2.95641e-13
-2.29176e-13
-1.65507e-13
-1.08501e-13
-7.98302e-14
-1.17119e-13
-2.92822e-14
3.25613e-15
-2.07451e-17
-2.48782e-14
-2.41824e-16
2.85506e-20
2.5651e-25
-4.43058e-32
7.19317e-23
-7.06756e-21
-1.81068e-17
-2.96818e-16
-3.72898e-16
2.65466e-17
2.49751e-14
3.71916e-13
2.0032e-12
6.15855e-12
1.29264e-11
2.03529e-11
2.53796e-11
2.59136e-11
2.23549e-11
1.53143e-11
8.95008e-12
4.73238e-12
1.46621e-12
2.51851e-13
2.33932e-14
2.65317e-18
-9.13484e-15
-5.74556e-14
-1.4413e-13
-2.50836e-13
-3.57016e-13
-4.45888e-13
-5.06664e-13
-5.34678e-13
-5.30429e-13
-4.98283e-13
-4.45251e-13
-3.79238e-13
-3.08072e-13
-2.38249e-13
-1.71898e-13
-1.12635e-13
-8.2412e-14
-1.19967e-13
-3.02629e-14
2.97281e-15
-3.14241e-17
-2.48596e-14
-2.38348e-16
2.68666e-20
2.26497e-25
-4.46033e-32
)
;

boundaryField
{
    inlet
    {
        type            cyclic;
    }
    outlet
    {
        type            cyclic;
    }
    walls
    {
        type            calculated;
        value           nonuniform List<scalar> 
96
(
-3.2574e-48
-2.25718e-46
-1.6582e-42
-3.71946e-40
-1.30778e-38
-1.28172e-37
-2.62275e-37
-1.07962e-39
2.41868e-36
2.83571e-35
7.46918e-35
8.1834e-35
3.61157e-35
2.10043e-36
-2.85081e-36
-8.96976e-35
-4.49276e-34
-1.26896e-33
-2.68776e-33
-4.55575e-33
-6.29606e-33
-8.41897e-33
-1.09383e-32
-1.38361e-32
-1.69867e-32
-2.02814e-32
-2.36193e-32
-2.69063e-32
-3.01489e-32
-3.32514e-32
-3.61995e-32
-3.89071e-32
-4.1425e-32
-4.36781e-32
-4.57123e-32
-4.74565e-32
-4.89558e-32
-5.01731e-32
-5.11176e-32
-5.17972e-32
-5.22287e-32
-5.24529e-32
-5.25015e-32
-5.2449e-32
-5.23228e-32
-5.22319e-32