/*--------------------------------*- C++ -*----------------------------------*\
| =========                 |                                                 |
| \\      /  F ield         | OpenFOAM: The Open Source CFD Toolbox           |
|  \\    /   O peration     | Version:  2412                                  |
|   \\  /    A nd           | Website:  www.openfoam.com                      |
|    \\/     M anipulation  |                                                 |
\*---------------------------------------------------------------------------*/
FoamFile
{
    version     2.0;
    format      ascii;
    arch        "LSB;label=32;scalar=64";
    class       volScalarField;
    location    "1830";
    object      I5;
}
// * * * * * * * * * * * * * * * * * * * * * * * * * * * * * * * * * * * * * //

dimensions      [0 0 0 0 0 0 0];

internalField   nonuniform List<scalar> 
2304
(
-1.75736e-10
-1.76384e-10
-1.77575e-10
-1.79187e-10
-1.81055e-10
-1.83008e-10
-1.8487e-10
-1.86479e-10
-1.87696e-10
-1.8842e-10
-1.88592e-10
-1.882e-10
-1.87273e-10
-1.85875e-10
-1.8409e-10
-1.82004e-10
-1.79697e-10
-1.77225e-10
-1.74622e-10
-1.7188e-10
-1.68959e-10
-1.6578e-10
-1.6223e-10
-1.58174e-10
-1.53464e-10
-1.47961e-10
-1.41549e-10
-1.34176e-10
-1.25872e-10
-1.16713e-10
-1.06717e-10
-9.59283e-11
-8.44732e-11
-7.25615e-11
-6.04904e-11
-4.86492e-11
-3.74992e-11
-2.75165e-11
-1.90984e-11
-1.24653e-11
-7.60637e-12
-4.30227e-12
-2.21855e-12
-1.01085e-12
-3.83974e-13
-1.08292e-13
-1.73614e-14
-9.00711e-16
-2.05468e-07
-2.0622e-07
-2.07601e-07
-2.09471e-07
-2.11639e-07
-2.13904e-07
-2.16065e-07
-2.17932e-07
-2.19346e-07
-2.20187e-07
-2.20387e-07
-2.19932e-07
-2.18855e-07
-2.17228e-07
-2.1515e-07
-2.12721e-07
-2.10032e-07
-2.07151e-07
-2.04115e-07
-2.00918e-07
-1.97511e-07
-1.93786e-07
-1.8963e-07
-1.84888e-07
-1.79392e-07
-1.72977e-07
-1.65512e-07
-1.56928e-07
-1.47256e-07
-1.36591e-07
-1.24953e-07
-1.12393e-07
-9.90628e-08
-8.52029e-08
-7.11522e-08
-5.73518e-08
-4.43265e-08
-3.26233e-08
-2.27099e-08
-1.48625e-08
-9.08927e-09
-5.16567e-09
-2.69571e-09
-1.26211e-09
-5.07709e-10
-1.53993e-10
-1.57243e-11
-1.73613e-14
-1.41595e-05
-1.42059e-05
-1.42909e-05
-1.44056e-05
-1.45383e-05
-1.46764e-05
-1.48076e-05
-1.49203e-05
-1.50049e-05
-1.50543e-05
-1.50644e-05
-1.50343e-05
-1.49659e-05
-1.48636e-05
-1.4733e-05
-1.45799e-05
-1.44096e-05
-1.42258e-05
-1.40304e-05
-1.3823e-05
-1.36017e-05
-1.33632e-05
-1.30966e-05
-1.27922e-05
-1.24393e-05
-1.20275e-05
-1.15474e-05
-1.09933e-05
-1.03652e-05
-9.66808e-06
-8.90204e-06
-8.06926e-06
-7.17819e-06
-6.24292e-06
-5.28361e-06
-4.32743e-06
-3.40807e-06
-2.56289e-06
-1.82724e-06
-1.2272e-06
-7.73954e-07
-4.5548e-07
-2.47541e-07
-1.20368e-07
-4.58938e-08
-7.90091e-09
-1.53993e-10
-1.08292e-13
-0.00016941
-0.000169827
-0.00017059
-0.000171616
-0.000172799
-0.000174027
-0.000175192
-0.000176194
-0.000176951
-0.000177402
-0.000177515
-0.00017728
-0.000176713
-0.000175847
-0.000174727
-0.000173398
-0.0001719
-0.000170262
-0.000168493
-0.000166586
-0.000164533
-0.000162302
-0.000159785
-0.000156888
-0.000153507
-0.000149537
-0.000144874
-0.000139433
-0.000133161
-0.000126056
-0.000118082
-0.000109225
-9.95185e-05
-8.90493e-05
-7.79616e-05
-6.64766e-05
-5.49021e-05
-4.36278e-05
-3.30994e-05
-2.377e-05
-1.60351e-05
-1.0025e-05
-5.60689e-06
-2.49854e-06
-6.30361e-07
-4.58938e-08
-5.07708e-10
-3.83973e-13
-0.000594053
-0.000594972
-0.000596645
-0.000598887
-0.000601469
-0.000604153
-0.000606716
-0.000608955
-0.000610708
-0.000611857
-0.000612337
-0.000612132
-0.000611265
-0.000609794
-0.000607795
-0.000605343
-0.000602499
-0.000599297
-0.000595737
-0.000591779
-0.00058742
-0.000582565
-0.000576957
-0.000570373
-0.000562572
-0.000553295
-0.000542268
-0.000529208
-0.000513823
-0.000495757
-0.000474857
-0.000451028
-0.000424192
-0.000394352
-0.000361618
-0.00032622
-0.000288488
-0.000248826
-0.000207687
-0.000165592
-0.000123419
-8.24655e-05
-4.48055e-05
-1.58502e-05
-2.49854e-06
-1.20367e-07
-1.26211e-09
-1.01085e-12
-0.000998616
-0.000999588
-0.00100137
-0.00100376
-0.00100652
-0.00100944
-0.00101229
-0.0010149
-0.00101712
-0.00101887
-0.00102008
-0.00102073
-0.00102086
-0.00102048
-0.00101964
-0.00101838
-0.00101671
-0.00101461
-0.00101204
-0.00100891
-0.00100525
-0.00100088
-0.000995513
-0.000988928
-0.000980876
-0.000971109
-0.000959364
-0.000945343
-0.000928722
-0.000909134
-0.000886307
-0.000860134
-0.000830627
-0.000797922
-0.000762272
-0.000723868
-0.000682478
-0.000636854
-0.000583853
-0.000516892
-0.000424635
-0.000298624
-0.000153707
-4.48054e-05
-5.60689e-06
-2.47541e-07
-2.69571e-09
-2.21855e-12
-0.00115435
-0.00115435
-0.00115435
-0.00115435
-0.00115435
-0.00115436
-0.00115436
-0.00115436
-0.00115436
-0.00115436
-0.00115436
-0.00115436
-0.00115436
-0.00115436
-0.00115436
-0.00115436
-0.00115436
-0.00115435
-0.00115434
-0.00115434
-0.00115432
-0.00115431
-0.00115429
-0.00115426
-0.00115423
-0.00115418
-0.00115412
-0.00115404
-0.00115395
-0.00114205
-0.00112333
-0.00110335
-0.00108291
-0.00106306
-0.00104494
-0.00102929
-0.00101554
-0.00100029
-0.00097501
-0.000922521
-0.000807804
-0.000589136
-0.000298624
-8.24654e-05
-1.0025e-05
-4.55479e-07
-5.16566e-09
-4.30226e-12
-0.00115429
-0.00115429
-0.0011543
-0.0011543
-0.00115431
-0.00115432
-0.00115433
-0.00115434
-0.00115435
-0.00115435
-0.00115436
-0.00115437
-0.00115438
-0.00115438
-0.00115439
-0.00115439
-0.0011544
-0.0011544
-0.0011544
-0.0011544
-0.0011544
-0.0011544
-0.00115439
-0.00115437
-0.00115433
-0.00115428
-0.00115421
-0.0011541
-0.00115395
-0.00115377
-0.00115358
-0.00115337
-0.00115312
-0.00115285
-0.00115257
-0.00115232
-0.00115213
-0.00115202
-0.00115192
-0.0011519
-0.00107509
-0.000807804
-0.000424635
-0.000123419
-1.60351e-05
-7.73953e-07
-9.08926e-09
-7.60636e-12
-0.00115419
-0.0011542
-0.00115421
-0.00115422
-0.00115423
-0.00115425
-0.00115427
-0.00115429
-0.00115431
-0.00115432
-0.00115434
-0.00115435
-0.00115437
-0.00115438
-0.00115439
-0.0011544
-0.00115441
-0.00115442
-0.00115442
-0.00115443
-0.00115443
-0.00115443
-0.00115442
-0.00115439
-0.00115434
-0.00115425
-0.00115412
-0.00115393
-0.00115368
-0.00115336
-0.00115298
-0.00115257
-0.00115217
-0.00115183
-0.00115161
-0.00115155
-0.00115165
-0.00115181
-0.00115184
-0.00115169
-0.0011519
-0.000922521
-0.000516891
-0.000165592
-2.377e-05
-1.2272e-06
-1.48624e-08
-1.24652e-11
-0.00115417
-0.00115418
-0.00115419
-0.00115421
-0.00115422
-0.00115425
-0.00115427
-0.00115429
-0.00115432
-0.00115434
-0.00115436
-0.00115438
-0.0011544
-0.00115441
-0.00115442
-0.00115443
-0.00115444
-0.00115445
-0.00115446
-0.00115446
-0.00115446
-0.00115444
-0.0011544
-0.00115432
-0.00115419
-0.00115398
-0.00115368
-0.00115328
-0.00115278
-0.00115219
-0.00115159
-0.00115108
-0.00115073
-0.00115064
-0.00115083
-0.00115123
-0.00115169
-0.00115201
-0.00115203
-0.00115184
-0.00115192
-0.00097501
-0.000583853
-0.000207686
-3.30994e-05
-1.82723e-06
-2.27099e-08
-1.90983e-11
-0.0011541
-0.00115411
-0.00115413
-0.00115415
-0.00115418
-0.00115421
-0.00115424
-0.00115428
-0.00115431
-0.00115434
-0.00115438
-0.0011544
-0.00115443
-0.00115445
-0.00115446
-0.00115448
-0.00115449
-0.00115451
-0.00115451
-0.00115451
-0.0011545
-0.00115445
-0.00115436
-0.00115419
-0.00115393
-0.00115353
-0.00115298
-0.00115229
-0.00115149
-0.00115066
-0.00114997
-0.00114956
-0.00114954
-0.00114993
-0.00115061
-0.00115135
-0.0011519
-0.00115211
-0.00115201
-0.00115181
-0.00115202
-0.00100029
-0.000636854
-0.000248826
-4.36277e-05
-2.56289e-06
-3.26233e-08
-2.75165e-11
-0.00115402
-0.00115403
-0.00115405
-0.00115408
-0.00115412
-0.00115416
-0.00115421
-0.00115426
-0.00115431
-0.00115436
-0.0011544
-0.00115444
-0.00115448
-0.00115451
-0.00115453
-0.00115455
-0.00115457
-0.00115458
-0.00115459
-0.00115457
-0.00115452
-0.00115442
-0.00115422
-0.0011539
-0.00115342
-0.00115275
-0.00115187
-0.00115086
-0.00114984
-0.00114898
-0.00114849
-0.00114853
-0.00114909
-0.00115
-0.00115099
-0.00115172
-0.00115201
-0.0011519
-0.00115169
-0.00115165
-0.00115213
-0.00101554
-0.000682478
-0.000288488
-5.4902e-05
-3.40807e-06
-4.43265e-08
-3.74992e-11
-0.00115392
-0.00115394
-0.00115397
-0.00115401
-0.00115406
-0.00115412
-0.00115419
-0.00115426
-0.00115433
-0.0011544
-0.00115446
-0.00115452
-0.00115456
-0.0011546
-0.00115463
-0.00115466
-0.00115467
-0.00115468
-0.00115465
-0.0011546
-0.00115447
-0.00115424
-0.00115387
-0.00115331
-0.00115253
-0.00115152
-0.00115034
-0.00114912
-0.0011481
-0.00114752
-0.00114758
-0.00114828
-0.00114942
-0.00115063
-0.00115152
-0.00115187
-0.00115172
-0.00115135
-0.00115123
-0.00115155
-0.00115232
-0.00102929
-0.000723868
-0.00032622
-6.64765e-05
-4.32742e-06
-5.73517e-08
-4.86491e-11
-0.00115383
-0.00115385
-0.00115389
-0.00115395
-0.00115402
-0.0011541
-0.00115419
-0.00115429
-0.00115438
-0.00115448
-0.00115456
-0.00115463
-0.00115469
-0.00115474
-0.00115477
-0.00115479
-0.00115479
-0.00115476
-0.00115468
-0.00115453
-0.00115425
-0.00115382
-0.00115318
-0.00115229
-0.00115118
-0.00114989
-0.00114857
-0.00114745
-0.00114681
-0.00114684
-0.00114759
-0.00114889
-0.0011503
-0.00115135
-0.00115175
-0.00115152
-0.00115099
-0.00115061
-0.00115083
-0.00115161
-0.00115257
-0.00104494
-0.000762272
-0.000361618
-7.79615e-05
-5.2836e-06
-7.11521e-08
-6.04903e-11
-0.00115375
-0.00115378
-0.00115383
-0.0011539
-0.00115399
-0.0011541
-0.00115422
-0.00115435
-0.00115447
-0.00115459
-0.0011547
-0.00115479
-0.00115486
-0.00115491
-0.00115494
-0.00115494
-0.00115489
-0.00115479
-0.00115459
-0.00115426
-0.00115374
-0.001153
-0.00115198
-0.0011507
-0.00114933
-0.00114803
-0.00114696
-0.00114635
-0.00114641
-0.00114721
-0.00114859
-0.00115008
-0.00115123
-0.00115166
-0.00115135
-0.00115063
-0.00115
-0.00114993
-0.00115064
-0.00115183
-0.00115285
-0.00106306
-0.000797922
-0.000394352
-8.90492e-05
-6.24291e-06
-8.52028e-08
-7.25613e-11
-0.00115368
-0.00115371
-0.00115377
-0.00115387
-0.00115398
-0.00115413
-0.00115428
-0.00115445
-0.00115461
-0.00115476
-0.0011549
-0.00115501
-0.00115509
-0.00115513
-0.00115513
-0.00115507
-0.00115493
-0.00115468
-0.00115427
-0.00115365
-0.00115273
-0.00115156
-0.00115022
-0.00114875
-0.00114738
-0.00114154
-0.00113826
-0.00113893
-0.00114424
-0.00114859
-0.00115011
-0.00115129
-0.00115167
-0.00115123
-0.0011503
-0.00114942
-0.00114909
-0.00114954
-0.00115073
-0.00115217
-0.00115312
-0.00108291
-0.000830626
-0.000424192
-9.95184e-05
-7.17818e-06
-9.90626e-08
-8.4473e-11
-0.00115362
-0.00115366
-0.00115374
-0.00115386
-0.00115401
-0.00115419
-0.00115439
-0.0011546
-0.0011548
-0.00115499
-0.00115516
-0.00115528
-0.00115535
-0.00115537
-0.0011553
-0.00115513
-0.00115482
-0.00115431
-0.00115351
-0.00115248
-0.00115121
-0.00114966
-0.00114136
-0.00113083
-0.00112269
-0.00111812
-0.00111782
-0.00112125
-0.00112764
-0.00113655
-0.00115054
-0.00115186
-0.00115129
-0.00115008
-0.00114889
-0.00114828
-0.00114853
-0.00114956
-0.00115108
-0.00115257
-0.00115337
-0.00110335
-0.000860134
-0.000451027
-0.000109224
-8.06924e-06
-1.12393e-07
-9.59281e-11
-0.00115359
-0.00115364
-0.00115374
-0.00115389
-0.00115407
-0.0011543
-0.00115454
-0.0011548
-0.00115506
-0.00115529
-0.00115548
-0.0011556
-0.00115564
-0.00115559
-0.00115539
-0.00115501
-0.00115437
-0.0011535
-0.00115233
-0.00115082
-0.00113732
-0.0011242
-0.00111294
-0.00110491
-0.00110015
-0.00109855
-0.00110087
-0.00110677
-0.00111541
-0.00112557
-0.00113557
-0.00115054
-0.00115011
-0.00114859
-0.00114759
-0.00114758
-0.00114849
-0.00114997
-0.00115159
-0.00115298
-0.00115358
-0.00112333
-0.000886306
-0.000474856
-0.000118082
-8.90203e-06
-1.24952e-07
-1.06717e-10
-0.00115358
-0.00115365
-0.00115377
-0.00115395
-0.00115418
-0.00115446
-0.00115476
-0.00115508
-0.00115538
-0.00115565
-0.00115585
-0.00115596
-0.00115592
-0.00115571
-0.00115526
-0.00115458
-0.00115357
-0.00115025
-0.00113546
-0.00112064
-0.00110728
-0.00109621
-0.00108685
-0.00108047
-0.00107788
-0.00107912
-0.00108412
-0.00109225
-0.00110251
-0.00111404
-0.00112557
-0.00113655
-0.00114859
-0.00114721
-0.00114684
-0.00114752
-0.00114898
-0.00115066
-0.00115219
-0.00115336
-0.00115377
-0.00114205
-0.000909134
-0.000495756
-0.000126056
-9.66807e-06
-1.36591e-07
-1.16713e-10
-0.00115361
-0.00115369
-0.00115384
-0.00115406
-0.00115434
-0.00115467
-0.00115504
-0.00115542
-0.00115578
-0.00115607
-0.00115626
-0.00115629
-0.00115607
-0.00115562
-0.00115486
-0.00115055
-0.00113531
-0.00111973
-0.00110506
-0.00109152
-0.00107835
-0.00106773
-0.0010602
-0.00105642
-0.00105667
-0.00106078
-0.00106824
-0.00107828
-0.00108996
-0.00110251
-0.00111541
-0.00112764
-0.00114424
-0.00114641
-0.00114681
-0.0011481
-0.00114984
-0.00115149
-0.00115278
-0.00115368
-0.00115395
-0.00115395
-0.000928722
-0.000513823
-0.000133161
-1.03652e-05
-1.47255e-07
-1.25871e-10
-0.00115368
-0.00115377
-0.00115395
-0.00115422
-0.00115455
-0.00115495
-0.00115539
-0.00115583
-0.00115623
-0.00115652
-0.00115664
-0.00115651
-0.00115605
-0.00115362
-0.00113762
-0.00112135
-0.00110559
-0.00109006
-0.00107415
-0.00105994
-0.00104794
-0.00103929
-0.00103448
-0.00103378
-0.00103705
-0.00104384
-0.00105347
-0.00106519
-0.00107828
-0.00109225
-0.00110677
-0.00112125
-0.00113893
-0.00114635
-0.00114745
-0.00114912
-0.00115086
-0.00115229
-0.00115328
-0.00115393
-0.0011541
-0.00115404
-0.000945343
-0.000529207
-0.000139433
-1.09933e-05
-1.56928e-07
-1.34176e-10
-0.00115378
-0.00115389
-0.00115411
-0.00115442
-0.00115482
-0.00115529
-0.0011558
-0.0011563
-0.00115671
-0.00115694
-0.0011569
-0.00115649
-0.00114406
-0.00112634
-0.00110927
-0.00109204
-0.00107387
-0.00105659
-0.00104077
-0.00102763
-0.00101789
-0.00101213
-0.00101056
-0.00101304
-0.0010192
-0.00102843
-0.00104005
-0.00105347
-0.00106824
-0.00108412
-0.00110087
-0.00111782
-0.00113826
-0.00114696
-0.00114857
-0.00115034
-0.00115187
-0.00115298
-0.00115368
-0.00115412
-0.00115421
-0.00115412
-0.000959364
-0.000542267
-0.000144874
-1.15473e-05
-1.65511e-07
-1.41549e-10
-0.00115391
-0.00115404
-0.0011543
-0.00115466
-0.00115513
-0.00115567
-0.00115624
-0.00115677
-0.00115715
-0.00115723
-0.00115588
-0.00113623
-0.00111733
-0.00109839
-0.00107796
-0.00105787
-0.00103858
-0.00102131
-0.00100687
-0.00099608
-0.000989379
-0.000986978
-0.000988774
-0.000994382
-0.00100325
-0.00101478
-0.00102843
-0.00104384
-0.00106078
-0.00107912
-0.00109855
-0.00111812
-0.00114154
-0.00114803
-0.00114989
-0.00115152
-0.00115275
-0.00115353
-0.00115398
-0.00115425
-0.00115428
-0.00115418
-0.000971109
-0.000553294
-0.000149537
-1.20274e-05
-1.72977e-07
-1.4796e-10
-0.00115407
-0.00115422
-0.00115451
-0.00115494
-0.00115547
-0.00115607
-0.00115669
-0.00115719
-0.00115741
-0.00115279
-0.00113062
-0.00110961
-0.00108746
-0.00106465
-0.00104197
-0.00102069
-0.00100167
-0.000985854
-0.000973882
-0.000966222
-0.000963034
-0.000964185
-0.000969316
-0.000977899
-0.000989373
-0.00100325
-0.0010192
-0.00103705
-0.00105667
-0.00107788
-0.00110015
-0.00112269
-0.00114738
-0.00114933
-0.00115118
-0.00115253
-0.00115342
-0.00115393
-0.00115419
-0.00115434
-0.00115433
-0.00115423
-0.000980875
-0.000562572
-0.000153507
-1.24393e-05
-1.79391e-07
-1.53464e-10
-0.00115423
-0.0011544
-0.00115474
-0.00115521
-0.0011558
-0.00115645
-0.00115704
-0.00115739
-0.00115142
-0.00112701
-0.00110343
-0.00107784
-0.001052
-0.00102674
-0.00100311
-0.000982151
-0.000964698
-0.000951424
-0.000942724
-0.000938709
-0.000939234
-0.000943926
-0.000952282
-0.00096376
-0.000977899
-0.000994382
-0.00101304
-0.00103378
-0.00105642
-0.00108047
-0.00110491
-0.00113083
-0.00114875
-0.0011507
-0.00115229
-0.00115331
-0.0011539
-0.00115419
-0.00115432
-0.00115439
-0.00115437
-0.00115426
-0.000988927
-0.000570373
-0.000156887
-1.27922e-05
-1.84888e-07
-1.58173e-10
-0.00115437
-0.00115456
-0.00115493
-0.00115545
-0.00115607
-0.0011567
-0.00115714
-0.0011512
-0.00112449
-0.00109814
-0.00106964
-0.00104057
-0.00101239
-0.00098618
-0.000962961
-0.000943648
-0.000928871
-0.00091898
-0.000914051
-0.000913902
-0.000918159
-0.000926315
-0.000937842
-0.000952282
-0.000969316
-0.000988774
-0.00101056
-0.00103448
-0.0010602
-0.00108685
-0.00111294
-0.00114136
-0.00115022
-0.00115198
-0.00115318
-0.00115387
-0.00115422
-0.00115436
-0.0011544
-0.00115442
-0.00115439
-0.00115429
-0.000995513
-0.000576956
-0.000159785
-1.30966e-05
-1.8963e-07
-1.62229e-10
-0.00115443
-0.00115464
-0.00115504
-0.00115558
-0.00115617
-0.00115664
-0.00115115
-0.00112257
-0.00109397
-0.00106263
-0.00103052
-0.00099923
-0.000970134
-0.000944399
-0.000922952
-0.000906424
-0.000895145
-0.000889149
-0.000888234
-0.000892005
-0.000899953
-0.000911545
-0.000926315
-0.000943926
-0.000964185
-0.000986978
-0.00101213
-0.00103929
-0.00106773
-0.00109621
-0.0011242
-0.00114966
-0.00115156
-0.001153
-0.00115382
-0.00115424
-0.00115442
-0.00115445
-0.00115444
-0.00115443
-0.0011544
-0.00115431
-0.00100088
-0.000582565
-0.000162302
-1.33631e-05
-1.93786e-07
-1.6578e-10
-0.00115433
-0.00115455
-0.00115495
-0.00115544
-0.00115587
-0.00114985
-0.0011204
-0.00109038
-0.00105667
-0.00102169
-0.000987342
-0.000955212
-0.000926706
-0.00090285
-0.000884308
-0.000871399
-0.000864147
-0.000862323
-0.000865517
-0.000873206
-0.000884847
-0.000899953
-0.000918159
-0.000939234
-0.000963034
-0.000989379
-0.00101789
-0.00104794
-0.00107835
-0.00110728
-0.00113732
-0.00115121
-0.00115273
-0.00115374
-0.00115425
-0.00115447
-0.00115452
-0.0011545
-0.00115446
-0.00115443
-0.0011544
-0.00115432
-0.00100525
-0.000587419
-0.000164532
-1.36017e-05
-1.97511e-07
-1.68959e-10
-0.00115393
-0.00115411
-0.00115444
-0.00115478
-0.00114538
-0.00111674
-0.00108644
-0.00105117
-0.00101378
-0.000976571
-0.000941438
-0.000910027
-0.000883536
-0.000862721
-0.000847939
-0.000839213
-0.000836307
-0.000838796
-0.000846143
-0.000857784
-0.000873207
-0.000892005
-0.000913902
-0.000938709
-0.000966223
-0.00099608
-0.00102763
-0.00105994
-0.00109152
-0.00112064
-0.00115082
-0.00115248
-0.00115365
-0.00115426
-0.00115453
-0.0011546
-0.00115457
-0.00115451
-0.00115446
-0.00115443
-0.0011544
-0.00115434
-0.00100891
-0.000591778
-0.000166586
-1.3823e-05
-2.00918e-07
-1.71879e-10
-0.0011529
-0.00115304
-0.0011532
-0.00113565
-0.00111011
-0.00108083
-0.00104512
-0.00100612
-0.000966528
-0.000928608
-0.000894315
-0.000865077
-0.000841798
-0.000824922
-0.000814511
-0.000810339
-0.000811977
-0.000818875
-0.000830446
-0.000846143
-0.000865517
-0.000888235
-0.000914051
-0.000942724
-0.000973883
-0.00100687
-0.00104077
-0.00107415
-0.00110506
-0.00113546
-0.00115233
-0.00115351
-0.00115427
-0.00115459
-0.00115468
-0.00115465
-0.00115459
-0.00115451
-0.00115446
-0.00115442
-0.0011544
-0.00115434
-0.00101204
-0.000595736
-0.000168493
-1.40304e-05
-2.04115e-07
-1.74621e-10
-0.00114363
-0.00113538
-0.00111984
-0.00109916
-0.00107194
-0.00103709
-0.000997585
-0.000956407
-0.000916195
-0.000879262
-0.000847329
-0.000821516
-0.000802405
-0.000790143
-0.000784544
-0.000785193
-0.000791532
-0.000802953
-0.000818875
-0.000838796
-0.000862323
-0.000889149
-0.000918981
-0.000951425
-0.000985854
-0.00102131
-0.00105659
-0.00109006
-0.00111973
-0.00115025
-0.0011535
-0.00115431
-0.00115468
-0.00115479
-0.00115476
-0.00115468
-0.00115458
-0.00115451
-0.00115445
-0.00115442
-0.0011544
-0.00115435
-0.00101461
-0.000599296
-0.000170261
-1.42257e-05
-2.07151e-07
-1.77225e-10
-0.00110649
-0.00109858
-0.00108303
-0.00105799
-0.00102522
-0.000986537
-0.000944896
-0.000903218
-0.000864179
-0.000829843
-0.000801607
-0.000780258
-0.000766075
-0.000758954
-0.000758517
-0.000764215
-0.000775426
-0.000791532
-0.000811978
-0.000836307
-0.000864147
-0.000895145
-0.000928872
-0.000964698
-0.00100167
-0.00103858
-0.00107387
-0.00110559
-0.00113531
-0.00115357
-0.00115437
-0.00115482
-0.00115493
-0.00115489
-0.00115479
-0.00115467
-0.00115457
-0.00115449
-0.00115444
-0.00115441
-0.0011544
-0.00115436
-0.00101671
-0.000602498
-0.0001719
-1.44095e-05
-2.10032e-07
-1.79696e-10
-0.00106722
-0.00105663
-0.00103641
-0.00100705
-0.000970724
-0.000930057
-0.000888104
-0.000847851
-0.000811719
-0.000781436
-0.000758051
-0.000742039
-0.000733422
-0.000731894
-0.000736939
-0.000747929
-0.000764215
-0.000785193
-0.00081034
-0.000839213
-0.000871399
-0.000906425
-0.000943648
-0.000982151
-0.00102069
-0.00105787
-0.00109205
-0.00112135
-0.00115055
-0.00115458
-0.00115501
-0.00115513
-0.00115507
-0.00115494
-0.00115479
-0.00115466
-0.00115455
-0.00115448
-0.00115443
-0.0011544
-0.00115439
-0.00115436
-0.00101838
-0.000605342
-0.000173397
-1.45798e-05
-2.1272e-07
-1.82003e-10
-0.00101458
-0.00100213
-0.000978931
-0.000946997
-0.000909137
-0.000868517
-0.000828363
-0.00079144
-0.000759833
-0.000734912
-0.000717402
-0.000707509
-0.000705041
-0.000709541
-0.000720397
-0.000736939
-0.000758517
-0.000784545
-0.000814511
-0.00084794
-0.000884308
-0.000922952
-0.000962962
-0.00100311
-0.00104197
-0.00107796
-0.00110927
-0.00113762
-0.00115486
-0.00115526
-0.00115539
-0.0011553
-0.00115513
-0.00115494
-0.00115477
-0.00115463
-0.00115453
-0.00115446
-0.00115442
-0.00115439
-0.00115439
-0.00115436
-0.00101964
-0.000607795
-0.000174727
-1.4733e-05
-2.1515e-07
-1.84089e-10
-0.000948833
-0.000935368
-0.000910859
-0.000878295
-0.000841152
-0.000802913
-0.00076668
-0.000734915
-0.000709346
-0.000691006
-0.000680335
-0.000677309
-0.000681566
-0.000692535
-0.000709541
-0.000731894
-0.000758954
-0.000790143
-0.000824922
-0.000862722
-0.00090285
-0.000944399
-0.000986181
-0.00102674
-0.00106465
-0.00109839
-0.00112634
-0.00115362
-0.00115562
-0.00115571
-0.00115559
-0.00115537
-0.00115513
-0.00115491
-0.00115474
-0.0011546
-0.00115451
-0.00115445
-0.00115441
-0.00115438
-0.00115438
-0.00115436
-0.00102048
-0.000609793
-0.000175847
-1.48636e-05
-2.17228e-07
-1.85874e-10
-0.000869875
-0.000856404
-0.000832417
-0.000801578
-0.000767667
-0.000734158
-0.000703914
-0.00067906
-0.000660981
-0.000650409
-0.000647531
-0.000652125
-0.000663689
-0.000681566
-0.000705041
-0.000733422
-0.000766075
-0.000802405
-0.000841798
-0.000883537
-0.000926706
-0.000970134
-0.00101239
-0.001052
-0.00108746
-0.00111733
-0.00114406
-0.00115605
-0.00115607
-0.00115592
-0.00115564
-0.00115535
-0.00115509
-0.00115486
-0.00115469
-0.00115456
-0.00115448
-0.00115443
-0.0011544
-0.00115437
-0.00115438
-0.00115436
-0.00102086
-0.000611264
-0.000176713
-1.49659e-05
-2.18854e-07
-1.87273e-10
-0.000778149
-0.000765903
-0.000744536
-0.000717873
-0.000689656
-0.000663143
-0.000640875
-0.00062463
-0.000615472
-0.00061385
-0.000619722
-0.000632687
-0.000652125
-0.000677309
-0.000707509
-0.000742039
-0.000780258
-0.000821516
-0.000865077
-0.000910027
-0.000955213
-0.000999231
-0.00104057
-0.00107784
-0.00110961
-0.00113623
-0.00115649
-0.00115651
-0.00115629
-0.00115596
-0.0011556
-0.00115528
-0.00115501
-0.00115479
-0.00115463
-0.00115452
-0.00115444
-0.0011544
-0.00115438
-0.00115435
-0.00115437
-0.00115436
-0.00102073
-0.000612131
-0.00017728
-1.50343e-05
-2.19932e-07
-1.882e-10
-0.00067536
-0.000665533
-0.000648768
-0.000628573
-0.000608332
-0.000590917
-0.000578492
-0.000572484
-0.000573638
-0.000582126
-0.000597676
-0.000619722
-0.000647531
-0.000680335
-0.000717403
-0.000758051
-0.000801607
-0.000847329
-0.000894315
-0.000941439
-0.000987343
-0.00103052
-0.00106964
-0.00110343
-0.00113062
-0.00115588
-0.0011569
-0.00115664
-0.00115626
-0.00115585
-0.00115548
-0.00115516
-0.0011549
-0.0011547
-0.00115456
-0.00115446
-0.0011544
-0.00115438
-0.00115436
-0.00115434
-0.00115436
-0.00115436
-0.00102008
-0.000612337
-0.000177514
-1.50644e-05
-2.20387e-07
-1.88592e-10
-0.00056441
-0.000558019
-0.000547524
-0.000535723
-0.00052539
-0.00051889
-0.000517963
-0.000523663
-0.000536403
-0.00055606
-0.000582126
-0.00061385
-0.000650409
-0.000691005
-0.000734912
-0.000781436
-0.000829843
-0.000879262
-0.000928608
-0.000976572
-0.00102169
-0.00106263
-0.00109814
-0.00112701
-0.00115279
-0.00115723
-0.00115694
-0.00115652
-0.00115607
-0.00115565
-0.00115529
-0.00115499
-0.00115476
-0.00115459
-0.00115448
-0.0011544
-0.00115436
-0.00115434
-0.00115434
-0.00115432
-0.00115435
-0.00115436
-0.00101887
-0.000611857
-0.000177402
-1.50543e-05
-2.20186e-07
-1.8842e-10
-0.000449738
-0.000447461
-0.000444348
-0.000442259
-0.0004432
-0.000448948
-0.000460779
-0.000479348
-0.000504706
-0.000536403
-0.000573638
-0.000615472
-0.000660981
-0.000709346
-0.000759833
-0.000811719
-0.000864179
-0.000916195
-0.000966528
-0.00101378
-0.00105667
-0.00109398
-0.00112449
-0.00115142
-0.00115741
-0.00115715
-0.00115671
-0.00115623
-0.00115578
-0.00115538
-0.00115506
-0.0011548
-0.00115461
-0.00115447
-0.00115438
-0.00115433
-0.00115431
-0.00115431
-0.00115432
-0.00115431
-0.00115435
-0.00115436
-0.00101712
-0.000610707
-0.00017695
-1.50049e-05
-2.19346e-07
-1.87696e-10
-0.000337304
-0.000339326
-0.000343923
-0.000351988
-0.000364731
-0.000383321
-0.000408559
-0.000440689
-0.000479348
-0.000523663
-0.000572483
-0.000624629
-0.00067906
-0.000734915
-0.000791439
-0.000847851
-0.000903218
-0.000956407
-0.00100612
-0.00105117
-0.00109038
-0.00112257
-0.0011512
-0.00115739
-0.00115719
-0.00115677
-0.0011563
-0.00115583
-0.00115542
-0.00115508
-0.0011548
-0.0011546
-0.00115445
-0.00115435
-0.00115429
-0.00115426
-0.00115426
-0.00115428
-0.00115429
-0.00115429
-0.00115434
-0.00115436
-0.0010149
-0.000608955
-0.000176194
-1.49203e-05
-2.17932e-07
-1.86479e-10
-0.00023401
-0.000239911
-0.000251561
-0.000269101
-0.000293086
-0.000324168
-0.000362725
-0.000408559
-0.000460779
-0.000517962
-0.000578492
-0.000640875
-0.000703914
-0.00076668
-0.000828362
-0.000888104
-0.000944896
-0.000997586
-0.00104512
-0.00108644
-0.0011204
-0.00115115
-0.00115714
-0.00115704
-0.00115669
-0.00115624
-0.0011558
-0.00115539
-0.00115504
-0.00115476
-0.00115454
-0.00115439
-0.00115428
-0.00115422
-0.00115419
-0.00115419
-0.00115421
-0.00115424
-0.00115427
-0.00115427
-0.00115433
-0.00115436
-0.00101229
-0.000606716
-0.000175192
-1.48076e-05
-2.16065e-07
-1.8487e-10
-0.000146505
-0.000155208
-0.000172179
-0.000197288
-0.000230801
-0.000273085
-0.000324168
-0.00038332
-0.000448948
-0.000518889
-0.000590916
-0.000663143
-0.000734158
-0.000802913
-0.000868517
-0.000930057
-0.000986537
-0.00103709
-0.00108083
-0.00111674
-0.00114985
-0.00115664
-0.0011567
-0.00115645
-0.00115607
-0.00115567
-0.00115529
-0.00115495
-0.00115467
-0.00115446
-0.0011543
-0.00115419
-0.00115413
-0.0011541
-0.0011541
-0.00115412
-0.00115416
-0.00115421
-0.00115425
-0.00115425
-0.00115432
-0.00115436
-0.00100944
-0.000604153
-0.000174027
-1.46764e-05
-2.13904e-07
-1.83008e-10
-7.96602e-05
-8.95104e-05
-0.000109134
-0.000138878
-0.000179301
-0.000230801
-0.000293085
-0.00036473
-0.0004432
-0.000525389
-0.000608331
-0.000689656
-0.000767666
-0.000841152
-0.000909137
-0.000970724
-0.00102522
-0.00107194
-0.00111011
-0.00114538
-0.00115587
-0.00115617
-0.00115607
-0.0011558
-0.00115547
-0.00115513
-0.00115482
-0.00115455
-0.00115434
-0.00115418
-0.00115407
-0.00115401
-0.00115398
-0.00115399
-0.00115402
-0.00115406
-0.00115412
-0.00115418
-0.00115422
-0.00115423
-0.00115431
-0.00115435
-0.00100652
-0.000601469
-0.000172799
-1.45383e-05
-2.11638e-07
-1.81055e-10
-3.52311e-05
-4.43132e-05
-6.35089e-05
-9.45231e-05
-0.000138878
-0.000197288
-0.0002691
-0.000351987
-0.000442259
-0.000535722
-0.000628572
-0.000717872
-0.000801578
-0.000878294
-0.000946997
-0.00100705
-0.00105799
-0.00109916
-0.00113565
-0.00115478
-0.00115544
-0.00115558
-0.00115545
-0.00115521
-0.00115494
-0.00115466
-0.00115442
-0.00115422
-0.00115406
-0.00115395
-0.00115389
-0.00115386
-0.00115387
-0.0011539
-0.00115395
-0.00115401
-0.00115408
-0.00115415
-0.00115421
-0.00115422
-0.0011543
-0.00115435
-0.00100376
-0.000598887
-0.000171616
-1.44056e-05
-2.09471e-07
-1.79186e-10
-1.11623e-05
-1.78973e-05
-3.4093e-05
-6.35089e-05
-0.000109134
-0.000172178
-0.00025156
-0.000343922
-0.000444347
-0.000547523
-0.000648768
-0.000744536
-0.000832416
-0.000910858
-0.000978931
-0.00103641
-0.00108303
-0.00111984
-0.0011532
-0.00115444
-0.00115495
-0.00115504
-0.00115493
-0.00115474
-0.00115451
-0.0011543
-0.00115411
-0.00115395
-0.00115384
-0.00115377
-0.00115374
-0.00115374
-0.00115377
-0.00115383
-0.00115389
-0.00115397
-0.00115405
-0.00115413
-0.00115419
-0.00115421
-0.0011543
-0.00115435
-0.00100137
-0.000596645
-0.00017059
-1.42909e-05
-2.07601e-07
-1.77575e-10
-1.89151e-06
-5.72776e-06
-1.78973e-05
-4.43131e-05
-8.95103e-05
-0.000155208
-0.000239911
-0.000339325
-0.00044746
-0.000558019
-0.000665533
-0.000765903
-0.000856403
-0.000935367
-0.00100213
-0.00105663
-0.00109858
-0.00113538
-0.00115304
-0.00115411
-0.00115455
-0.00115464
-0.00115456
-0.0011544
-0.00115422
-0.00115404
-0.00115389
-0.00115377
-0.00115369
-0.00115365
-0.00115364
-0.00115366
-0.00115371
-0.00115378
-0.00115385
-0.00115394
-0.00115403
-0.00115411
-0.00115418
-0.0011542
-0.00115429
-0.00115435
-0.000999588
-0.000594972
-0.000169827
-1.42059e-05
-2.0622e-07
-1.76384e-10
-8.2352e-08
-1.89151e-06
-1.11623e-05
-3.52311e-05
-7.96601e-05
-0.000146505
-0.00023401
-0.000337304
-0.000449737
-0.00056441
-0.00067536
-0.000778148
-0.000869874
-0.000948833
-0.00101458
-0.00106722
-0.00110649
-0.00114363
-0.0011529
-0.00115393
-0.00115433
-0.00115443
-0.00115437
-0.00115423
-0.00115407
-0.00115391
-0.00115378
-0.00115368
-0.00115361
-0.00115358
-0.00115359
-0.00115362
-0.00115368
-0.00115375
-0.00115383
-0.00115392
-0.00115402
-0.0011541
-0.00115417
-0.00115419
-0.00115429
-0.00115435
-0.000998615
-0.000594052
-0.000169409
-1.41595e-05
-2.05469e-07
-1.75737e-10
)
;

boundaryField
{
    inlet
    {
        type            cyclic;
    }
    outlet
    {
        type            cyclic;
    }
    walls
    {
        type            calculated;
        value           nonuniform List<scalar> 
96
(
-1.06335e-15
-2.04428e-14
-1.22082e-13
-4.21044e-13
-1.08851e-12
-2.35881e-12
-4.53148e-12
-7.95461e-12
-1.29657e-11
-1.97867e-11
-2.84284e-11
-3.86658e-11
-5.00919e-11
-6.22187e-11
-7.45726e-11
-8.67547e-11
-9.84614e-11
-1.0948e-10
-1.19682e-10
-1.29025e-10
-1.37494e-10
-1.4501e-10
-1.51543e-10
-1.57149e-10
-1.61943e-10
-1.6607e-10
-1.6968e-10
-1.72911e-10
-1.75879e-10
-1.78664e-10
-1.81309e-10
-1.8382e-10
-1.86164e-10
-1.88283e-10
-1.90096e-10
-1.91516e-10
-1.92456e-10