/*--------------------------------*- C++ -*----------------------------------*\
| =========                 |                                                 |
| \\      /  F ield         | OpenFOAM: The Open Source CFD Toolbox           |
|  \\    /   O peration     | Version:  2412                                  |
|   \\  /    A nd           | Website:  www.openfoam.com                      |
|    \\/     M anipulation  |                                                 |
\*---------------------------------------------------------------------------*/
FoamFile
{
    version     2.0;
    format      ascii;
    arch        "LSB;label=32;scalar=64";
    class       volScalarField;
    location    "1830";
    object      k;
}
// * * * * * * * * * * * * * * * * * * * * * * * * * * * * * * * * * * * * * //

dimensions      [0 2 -2 0 0 0 0];

internalField   nonuniform List<scalar> 
2304
(
1.53607e-05
1.53885e-05
1.54395e-05
1.55083e-05
1.55876e-05
1.567e-05
1.57479e-05
1.58147e-05
1.58647e-05
1.58937e-05
1.58993e-05
1.58811e-05
1.58402e-05
1.57791e-05
1.57012e-05
1.56099e-05
1.55086e-05
1.53995e-05
1.52839e-05
1.51616e-05
1.50307e-05
1.48875e-05
1.47265e-05
1.45409e-05
1.43231e-05
1.40647e-05
1.37579e-05
1.33965e-05
1.29773e-05
1.24985e-05
1.19537e-05
1.13361e-05
1.06406e-05
9.86481e-06
9.00978e-06
8.0824e-06
7.09792e-06
6.08142e-06
5.06694e-06
4.09316e-06
3.1961e-06
2.40202e-06
1.72347e-06
1.16272e-06
7.16711e-07
3.80728e-07
1.51372e-07
3.06487e-08
1.31386e-05
1.31566e-05
1.31896e-05
1.32338e-05
1.32841e-05
1.33348e-05
1.33802e-05
1.34146e-05
1.34334e-05
1.34327e-05
1.34101e-05
1.3365e-05
1.32979e-05
1.32108e-05
1.31068e-05
1.29892e-05
1.28615e-05
1.27267e-05
1.25871e-05
1.24443e-05
1.22993e-05
1.21505e-05
1.19937e-05
1.18239e-05
1.16352e-05
1.14202e-05
1.11714e-05
1.08815e-05
1.05459e-05
1.01626e-05
9.72677e-06
9.23266e-06
8.67536e-06
8.05003e-06
7.35278e-06
6.58308e-06
5.7472e-06
4.86181e-06
3.95633e-06
3.07197e-06
2.25563e-06
1.55019e-06
9.83523e-07
5.64214e-07
2.82734e-07
1.17131e-07
4.82265e-08
1.51372e-07
8.10785e-05
8.11807e-05
8.13671e-05
8.16169e-05
8.18992e-05
8.2181e-05
8.24279e-05
8.26067e-05
8.26881e-05
8.2649e-05
8.24749e-05
8.21605e-05
8.17093e-05
8.1133e-05
8.04504e-05
7.96819e-05
7.88493e-05
7.79716e-05
7.70652e-05
7.61415e-05
7.52113e-05
7.42681e-05
7.3285e-05
7.22329e-05
7.10753e-05
6.97686e-05
6.82641e-05
6.65154e-05
6.44903e-05
6.2176e-05
5.95424e-05
5.65552e-05
5.31824e-05
4.93898e-05
4.51457e-05
4.0436e-05
3.52867e-05
2.97908e-05
2.4127e-05
1.85605e-05
1.34103e-05
8.96965e-06
5.44178e-06
2.89815e-06
1.27536e-06
4.12636e-07
1.17131e-07
3.80728e-07
0.000290715
0.000291049
0.000291656
0.000292467
0.000293382
0.000294289
0.000295075
0.000295629
0.000295855
0.000295675
0.00029504
0.000293933
0.000292363
0.000290369
0.000288013
0.000285361
0.000282487
0.000279453
0.000276315
0.000273111
0.000269879
0.00026659
0.000263161
0.000259495
0.00025547
0.000250942
0.000245743
0.00023971
0.000232716
0.000224691
0.000215531
0.000205121
0.000193342
0.00018006
0.000165142
0.0001485
0.000130175
0.000110429
8.98372e-05
6.93184e-05
5.00705e-05
3.32993e-05
1.99101e-05
1.03043e-05
4.30844e-06
1.27536e-06
2.82734e-07
7.16711e-07
0.000664629
0.000665227
0.000666313
0.000667756
0.000669367
0.000670938
0.000672255
0.00067311
0.000673319
0.000672736
0.000671265
0.000668868
0.000665563
0.000661418
0.000656544
0.000651068
0.000645125
0.000638838
0.000632313
0.000625627
0.000618839
0.000611893
0.000604645
0.000596913
0.000588465
0.000579017
0.000568238
0.000555783
0.000541327
0.000524601
0.000505388
0.00048345
0.000458486
0.000430123
0.000397944
0.000361568
0.000320804
0.000275866
0.000227647
0.000177963
0.000129666
8.62766e-05
5.09853e-05
2.56865e-05
1.03043e-05
2.89815e-06
5.64214e-07
1.16272e-06
0.00109623
0.00109689
0.00109808
0.00109965
0.00110135
0.00110295
0.00110416
0.00110473
0.00110444
0.00110308
0.00110055
0.00109678
0.00109179
0.00108566
0.00107852
0.00107052
0.00106184
0.00105264
0.00104305
0.00103318
0.0010231
0.00101273
0.00100194
0.000990479
0.000978069
0.000964343
0.000948863
0.000931142
0.000910648
0.00088677
0.000859208
0.000827632
0.000791499
0.000750087
0.00070251
0.000647789
0.000585
0.000513583
0.000433822
0.00034749
0.00025867
0.000174329
0.000102906
5.09853e-05
1.99101e-05
5.44178e-06
9.83522e-07
1.72347e-06
0.00147705
0.00147755
0.00147843
0.00147956
0.00148071
0.00148163
0.00148207
0.00148177
0.0014805
0.00147807
0.00147435
0.00146928
0.00146285
0.00145514
0.00144627
0.00143641
0.00142571
0.00141436
0.00140249
0.00139025
0.00137768
0.00136477
0.00135137
0.00133727
0.00132219
0.00130576
0.00128753
0.00126694
0.00124337
0.00121591
0.00118423
0.00114796
0.00110632
0.00105828
0.00100247
0.000937252
0.000860773
0.000771252
0.000667517
0.00054991
0.00042159
0.000291306
0.000174329
8.62766e-05
3.32993e-05
8.96965e-06
1.55019e-06
2.40202e-06
0.00177913
0.00177937
0.00177976
0.0017802
0.00178049
0.00178044
0.00177981
0.00177839
0.00177596
0.00177235
0.00176742
0.00176112
0.00175343
0.0017444
0.00173414
0.00172279
0.0017105
0.00169744
0.00168377
0.00166962
0.00165507
0.00164012
0.00162468
0.00160859
0.0015916
0.00157339
0.00155351
0.00153144
0.00150655
0.00147816
0.00144573
0.00140862
0.00136585
0.0013161
0.00125764
0.00118828
0.00110542
0.00100622
0.000888087
0.00074967
0.000591867
0.00042159
0.00025867
0.000129666
5.00705e-05
1.34103e-05
2.25563e-06
3.1961e-06
0.00201178
0.00201167
0.00201141
0.00201094
0.00201012
0.00200883
0.00200688
0.00200409
0.00200031
0.00199536
0.00198915
0.00198159
0.00197267
0.00196242
0.00195092
0.00193829
0.00192467
0.00191021
0.00189507
0.00187941
0.00186333
0.00184686
0.00182998
0.0018126
0.00179452
0.00177548
0.0017551
0.00173287
0.00170818
0.00168036
0.00164878
0.00161262
0.00157076
0.00152168
0.00146336
0.00139327
0.00130826
0.00120466
0.00107858
0.000927031
0.00074967
0.00054991
0.00034749
0.000177963
6.93184e-05
1.85604e-05
3.07197e-06
4.09316e-06
0.00218788
0.00218736
0.00218634
0.00218481
0.00218273
0.00218001
0.00217655
0.00217224
0.00216694
0.00216054
0.00215294
0.00214407
0.00213389
0.00212243
0.00210975
0.00209594
0.00208113
0.00206548
0.00204915
0.00203231
0.00201509
0.00199759
0.00197984
0.00196181
0.00194338
0.00192434
0.00190435
0.00188296
0.00185957
0.00183348
0.00180395
0.00176999
0.00173032
0.00168324
0.00162657
0.00155752
0.00147263
0.0013677
0.00123779
0.00107858
0.000888087
0.000667517
0.000433822
0.000227647
8.98372e-05
2.4127e-05
3.95633e-06
5.06693e-06
0.00232029
0.00231933
0.00231748
0.00231481
0.00231134
0.00230709
0.00230201
0.00229605
0.00228913
0.00228117
0.00227208
0.00226181
0.00225033
0.00223764
0.00222378
0.00220886
0.00219298
0.0021763
0.00215902
0.00214131
0.00212336
0.00210528
0.00208719
0.00206909
0.00205093
0.00203254
0.00201362
0.00199373
0.00197227
0.00194852
0.00192158
0.00189034
0.00185338
0.00180887
0.00175449
0.00168731
0.00160368
0.00149912
0.0013677
0.00120466
0.00100622
0.000771252
0.000513583
0.000275866
0.000110429
2.97907e-05
4.8618e-06
6.08142e-06
0.00241958
0.00241814
0.00241542
0.00241155
0.00240664
0.00240078
0.002394
0.0023863
0.00237767
0.00236805
0.0023574
0.00234566
0.00233282
0.00231886
0.00230384
0.00228785
0.00227101
0.0022535
0.00223551
0.00221726
0.00219895
0.00218076
0.00216281
0.00214516
0.00212778
0.00211052
0.0020931
0.00207508
0.00205585
0.00203463
0.00201041
0.00198199
0.00194784
0.00190603
0.00185415
0.00178918
0.0017073
0.00160368
0.00147263
0.00130826
0.00110542
0.000860773
0.000585
0.000320804
0.000130175
3.52867e-05
5.7472e-06
7.09792e-06
0.00249358
0.00249165
0.00248803
0.00248293
0.00247654
0.00246902
0.00246047
0.00245098
0.00244057
0.00242923
0.00241693
0.00240366
0.0023894
0.00237417
0.00235801
0.00234103
0.00232337
0.00230523
0.00228681
0.00226836
0.00225009
0.00223221
0.00221485
0.00219809
0.00218189
0.0021661
0.00215043
0.00213444
0.0021175
0.00209878
0.00207723
0.00205153
0.0020201
0.00198096
0.00193162
0.00186901
0.00178918
0.00168731
0.00155752
0.00139327
0.00118828
0.000937252
0.000647788
0.000361568
0.0001485
4.04359e-05
6.58308e-06
8.0824e-06
0.00254795
0.00254553
0.002541
0.00253465
0.00252675
0.00251754
0.0025072
0.00249587
0.00248362
0.0024705
0.00245651
0.00244166
0.00242597
0.00240947
0.00239223
0.00237438
0.00235608
0.00233754
0.00231899
0.00230069
0.00228286
0.0022657
0.00224934
0.00223383
0.00221912
0.00220502
0.00219123
0.00217729
0.00216258
0.00214623
0.00212717
0.00210404
0.0020752
0.00203863
0.00199181
0.00193162
0.00185415
0.00175449
0.00162657
0.00146336
0.00125764
0.00100247
0.00070251
0.000397943
0.000165142
4.51457e-05
7.35277e-06
9.00977e-06
0.00258678
0.00258386
0.00257841
0.0025708
0.00256139
0.00255047
0.00253832
0.00252511
0.00251099
0.00249605
0.00248033
0.0024639
0.00244679
0.00242907
0.00241086
0.00239229
0.00237357
0.00235491
0.00233657
0.00231878
0.00230177
0.0022857
0.00227068
0.00225672
0.00224373
0.00223148
0.00221963
0.00220772
0.00219511
0.00218096
0.0021642
0.00214346
0.00211707
0.00208295
0.00203863
0.00198096
0.00190603
0.00180887
0.00168324
0.00152168
0.0013161
0.00105828
0.000750087
0.000430123
0.00018006
4.93898e-05
8.05002e-06
9.86481e-06
0.00261297
0.00260955
0.00260319
0.00259432
0.00258339
0.00257077
0.00255678
0.00254169
0.00252568
0.00250891
0.00249147
0.00247347
0.002455
0.00243617
0.00241714
0.00239808
0.0023792
0.00236074
0.00234294
0.00232602
0.00231017
0.00229552
0.00228213
0.00226995
0.00225885
0.00224855
0.0022387
0.00222881
0.00221822
0.0022061
0.00219142
0.00217287
0.00214878
0.00211707
0.0020752
0.0020201
0.00194784
0.00185338
0.00173032
0.00157076
0.00136585
0.00110632
0.000791499
0.000458486
0.000193342
5.31824e-05
8.67536e-06
1.06406e-05
0.00262863
0.00262472
0.00261744
0.00260733
0.00259489
0.00258056
0.00256475
0.00254777
0.00252988
0.00251129
0.00249217
0.00247268
0.00245297
0.00243321
0.00241358
0.00239429
0.00237556
0.00235763
0.00234071
0.00232499
0.00231061
0.00229764
0.00228607
0.00227581
0.00226671
0.00225848
0.00225072
0.00224287
0.00223427
0.00222409
0.00221137
0.00219482
0.00217287
0.00214346
0.00210404
0.00205153
0.00198199
0.00189034
0.00176999
0.00161262
0.00140862
0.00114796
0.000827631
0.000483449
0.000205121
5.65552e-05
9.23266e-06
1.13361e-05
0.00263526
0.00263086
0.00262268
0.00261133
0.00259739
0.00258137
0.00256375
0.0025449
0.00252517
0.00250483
0.00248413
0.00246329
0.00244253
0.00242207
0.00240213
0.00238294
0.00236471
0.00234766
0.00233194
0.0023177
0.00230498
0.00229385
0.00228428
0.00227613
0.0022692
0.00226314
0.0022575
0.00225173
0.00224514
0.00223688
0.002226
0.00221137
0.00219142
0.0021642
0.00212717
0.00207723
0.00201041
0.00192158
0.00180395
0.00164878
0.00144573
0.00118423
0.000859208
0.000505387
0.000215531
5.95424e-05
9.72676e-06
1.19537e-05
0.0026339
0.00262902
0.00261996
0.00260739
0.00259198
0.0025743
0.0025549
0.00253426
0.00251277
0.0024908
0.00246869
0.00244672
0.00242518
0.00240435
0.00238445
0.00236571
0.00234833
0.00233244
0.00231815
0.00230557
0.00229475
0.0022857
0.0022783
0.00227239
0.0022677
0.00226385
0.00226038
0.00225671
0.00225214
0.00224586
0.00223688
0.00222409
0.0022061
0.00218096
0.00214623
0.00209878
0.00203463
0.00194852
0.00183348
0.00168036
0.00147816
0.0012159
0.000886769
0.0005246
0.000224691
6.21759e-05
1.01626e-05
1.24985e-05
0.00262532
0.00261997
0.00261004
0.00259628
0.00257942
0.00256014
0.00253905
0.00251671
0.00249361
0.00247021
0.00244693
0.00242414
0.00240218
0.00238136
0.00236188
0.00234394
0.00232765
0.00231316
0.00230056
0.00228992
0.00228121
0.00227438
0.00226928
0.0022657
0.00226332
0.00226174
0.00226047
0.00225893
0.00225642
0.00225214
0.00224514
0.00223427
0.00221822
0.00219511
0.00216258
0.0021175
0.00205585
0.00197227
0.00185957
0.00170818
0.00150655
0.00124337
0.000910648
0.000541326
0.000232716
6.44902e-05
1.05459e-05
1.29773e-05
0.00261001
0.0026042
0.00259343
0.00257852
0.00256029
0.00253949
0.00251682
0.00249294
0.00246846
0.00244391
0.00241982
0.00239661
0.00237466
0.00235422
0.00233546
0.00231858
0.00230369
0.0022909
0.00228025
0.00227175
0.00226533
0.00226087
0.00225819
0.00225701
0.002257
0.00225773
0.0022587
0.00225933
0.00225893
0.00225671
0.00225173
0.00224287
0.00222881
0.00220772
0.00217729
0.00213444
0.00207508
0.00199373
0.00188296
0.00173287
0.00153144
0.00126694
0.000931142
0.000555783
0.00023971
6.65154e-05
1.08815e-05
1.33965e-05
0.00258831
0.00258206
0.00257048
0.00255449
0.00253497
0.00251278
0.00248872
0.00246356
0.002438
0.00241269
0.00238822
0.00236504
0.00234344
0.00232371
0.00230601
0.00229054
0.00227736
0.00226654
0.00225808
0.00225192
0.00224795
0.002246
0.00224582
0.00224711
0.00224952
0.00225259
0.00225585
0.0022587
0.00226047
0.00226038
0.0022575
0.00225072
0.0022387
0.00221963
0.00219123
0.00215043
0.0020931
0.00201362
0.00190435
0.0017551
0.00155351
0.00128753
0.000948863
0.000568238
0.000245743
6.82641e-05
1.11714e-05
1.37578e-05
0.00256041
0.00255376
0.00254143
0.00252444
0.00250378
0.00248039
0.0024552
0.0024291
0.00240288
0.00237729
0.00235291
0.00233009
0.00230923
0.00229058
0.00227432
0.00226058
0.00224943
0.00224085
0.0022348
0.00223117
0.00222979
0.00223043
0.00223283
0.00223666
0.00224152
0.002247
0.00225259
0.00225773
0.00226174
0.00226385
0.00226314
0.00225848
0.00224855
0.00223148
0.00220502
0.0021661
0.00211052
0.00203254
0.00192434
0.00177548
0.00157339
0.00130576
0.000964342
0.000579016
0.000250941
6.97686e-05
1.14202e-05
1.40647e-05
0.00252644
0.00251941
0.00250642
0.00248858
0.00246696
0.00244266
0.00241671
0.0023901
0.00236374
0.00233835
0.00231441
0.00229239
0.00227267
0.00225551
0.00224107
0.00222942
0.00222058
0.0022145
0.00221107
0.00221011
0.00221143
0.00221476
0.0022198
0.0022262
0.00223359
0.00224152
0.00224952
0.002257
0.00226332
0.0022677
0.0022692
0.00226671
0.00225885
0.00224373
0.00221912
0.00218189
0.00212778
0.00205093
0.00194338
0.00179452
0.0015916
0.00132219
0.000978069
0.000588465
0.00025547
7.10752e-05
1.16351e-05
1.43231e-05
0.00248644
0.0024791
0.00246559
0.00244708
0.00242481
0.00239997
0.00237373
0.00234716
0.00232115
0.00229633
0.00227329
0.00225252
0.0022344
0.00221916
0.0022069
0.00219767
0.00219143
0.00218806
0.00218741
0.00218927
0.00219338
0.00219946
0.0022072
0.00221624
0.0022262
0.00223666
0.00224711
0.00225701
0.0022657
0.00227239
0.00227614
0.00227581
0.00226995
0.00225672
0.00223383
0.00219809
0.00214516
0.00206909
0.00196181
0.0018126
0.00160859
0.00133727
0.000990478
0.000596913
0.000259494
7.22328e-05
1.18239e-05
1.45409e-05
0.00244049
0.00243294
0.00241908
0.00240021
0.00237766
0.00235278
0.00232681
0.00230081
0.00227555
0.00225177
0.00223013
0.0022111
0.00219504
0.00218211
0.00217241
0.0021659
0.00216249
0.00216203
0.00216431
0.00216908
0.00217606
0.00218497
0.00219546
0.0022072
0.0022198
0.00223283
0.00224582
0.00225819
0.00226928
0.0022783
0.00228428
0.00228607
0.00228213
0.00227068
0.00224934
0.00221485
0.00216281
0.00208719
0.00197984
0.00182998
0.00162468
0.00135137
0.00100194
0.000604644
0.000263161
7.3285e-05
1.19937e-05
1.47265e-05
0.00238876
0.00238114
0.00236719
0.00234833
0.00232602
0.00230167
0.00227652
0.00225147
0.00222744
0.00220524
0.00218551
0.00216872
0.00215514
0.00214493
0.0021381
0.00213458
0.00213423
0.00213683
0.00214216
0.00214993
0.00215986
0.00217165
0.00218497
0.00219946
0.00221476
0.00223043
0.002246
0.00226087
0.00227438
0.0022857
0.00229385
0.00229764
0.00229552
0.0022857
0.0022657
0.00223221
0.00218076
0.00210528
0.00199759
0.00184686
0.00164012
0.00136477
0.00101273
0.000611892
0.00026659
7.42681e-05
1.21505e-05
1.48875e-05
0.00233162
0.00232409
0.00231039
0.00229203
0.00227051
0.00224723
0.00222325
0.00219963
0.00217738
0.0021573
0.00214001
0.00212591
0.00211525
0.00210811
0.00210445
0.00210415
0.00210702
0.00211283
0.00212131
0.00213217
0.00214513
0.00215986
0.00217606
0.00219338
0.00221143
0.00222979
0.00224795
0.00226533
0.00228121
0.00229475
0.00230498
0.00231061
0.00231017
0.00230177
0.00228286
0.00225009
0.00219895
0.00212336
0.00201509
0.00186333
0.00165507
0.00137768
0.0010231
0.000618838
0.000269879
7.52112e-05
1.22993e-05
1.50307e-05
0.0022697
0.00226248
0.00224941
0.00223204
0.00221175
0.00218984
0.0021675
0.00214587
0.00212595
0.00210853
0.00209417
0.00208322
0.00207584
0.00207208
0.00207184
0.00207496
0.00208122
0.00209035
0.00210208
0.00211612
0.00213217
0.00214993
0.00216908
0.00218927
0.00221011
0.00223117
0.00225192
0.00227175
0.00228992
0.00230558
0.00231771
0.002325
0.00232602
0.00231879
0.00230069
0.00226836
0.00221726
0.00214131
0.00203231
0.00187941
0.00166962
0.00139025
0.00103318
0.000625627
0.000273111
7.61415e-05
1.24443e-05
1.51616e-05
0.00220389
0.0021972
0.00218509
0.00216894
0.00215015
0.00213003
0.00210985
0.00209077
0.00207374
0.00205949
0.00204852
0.0020411
0.00203735
0.00203725
0.00204065
0.00204736
0.00205713
0.0020697
0.00208478
0.00210208
0.00212131
0.00214216
0.00216431
0.00218741
0.00221107
0.0022348
0.00225808
0.00228025
0.00230056
0.00231815
0.00233194
0.00234071
0.00234294
0.00233657
0.00231899
0.00228681
0.00223551
0.00215902
0.00204915
0.00189507
0.00168377
0.00140249
0.00104305
0.000632313
0.000276315
7.70651e-05
1.2587e-05
1.52839e-05
0.00213503
0.00212891
0.00211787
0.00210317
0.00208623
0.00206839
0.00205092
0.00203493
0.00202131
0.0020107
0.00200353
0.002
0.00200017
0.00200395
0.00201118
0.00202164
0.00203506
0.00205118
0.0020697
0.00209035
0.00211283
0.00213683
0.00216203
0.00218806
0.0022145
0.00224085
0.00226655
0.00229091
0.00231316
0.00233245
0.00234766
0.00235763
0.00236074
0.00235491
0.00233754
0.00230523
0.0022535
0.0021763
0.00206548
0.00191021
0.00169744
0.00141436
0.00105264
0.000638837
0.000279453
7.79715e-05
1.27266e-05
1.53995e-05
0.00206349
0.00205802
0.00204819
0.00203526
0.00202061
0.00200556
0.00199133
0.00197894
0.0019692
0.00196265
0.00195964
0.00196031
0.00196464
0.00197251
0.00198374
0.00199809
0.00201529
0.00203506
0.00205713
0.00208122
0.00210702
0.00213423
0.00216249
0.00219143
0.00222058
0.00224943
0.00227736
0.00230369
0.00232765
0.00234833
0.00236471
0.00237556
0.0023792
0.00237357
0.00235608
0.00232337
0.00227101
0.00219298
0.00208113
0.00192467
0.0017105
0.00142571
0.00106184
0.000645125
0.000282486
7.88492e-05
1.28615e-05
1.55086e-05
0.00198971
0.00198502
0.00197667
0.00196588
0.00195398
0.0019422
0.00193169
0.00192337
0.00191792
0.0019158
0.00191726
0.00192237
0.00193107
0.00194323
0.00195862
0.00197699
0.00199809
0.00202164
0.00204736
0.00207496
0.00210415
0.00213458
0.0021659
0.00219767
0.00222942
0.00226059
0.00229054
0.00231858
0.00234394
0.00236571
0.00238294
0.00239429
0.00239808
0.00239229
0.00237438
0.00234103
0.00228785
0.00220886
0.00209594
0.00193829
0.00172279
0.00143641
0.00107052
0.000651067
0.000285361
7.96818e-05
1.29892e-05
1.56099e-05
0.00191437
0.0019106
0.00190401
0.00189574
0.00188701
0.00187896
0.00187261
0.00186874
0.00186793
0.00187054
0.00187672
0.0018865
0.00189978
0.00191637
0.00193607
0.00195862
0.00198374
0.00201118
0.00204065
0.00207184
0.00210445
0.0021381
0.00217241
0.0022069
0.00224107
0.00227432
0.00230601
0.00233546
0.00236188
0.00238445
0.00240213
0.00241358
0.00241714
0.00241086
0.00239223
0.00235801
0.00230384
0.00222378
0.00210975
0.00195092
0.00173414
0.00144627
0.00107852
0.000656544
0.000288013
8.04503e-05
1.31068e-05
1.57012e-05
0.00183824
0.00183556
0.00183099
0.00182558
0.0018204
0.00181646
0.00181463
0.00181555
0.00181967
0.00182725
0.00183838
0.00185301
0.00187102
0.00189222
0.00191637
0.00194323
0.00197251
0.00200395
0.00203725
0.00207208
0.00210811
0.00214493
0.00218211
0.00221916
0.00225551
0.00229058
0.00232371
0.00235422
0.00238136
0.00240435
0.00242208
0.00243321
0.00243618
0.00242907
0.00240947
0.00237417
0.00231886
0.00223764
0.00212243
0.00196242
0.0017444
0.00145514
0.00108566
0.000661418
0.000290369
8.1133e-05
1.32108e-05
1.57791e-05
0.00176218
0.00176071
0.00175841
0.00175615
0.00175483
0.00175532
0.00175828
0.00176424
0.00177352
0.00178627
0.00180251
0.00182216
0.00184507
0.00187102
0.00189978
0.00193107
0.00196464
0.00200017
0.00203735
0.00207584
0.00211525
0.00215514
0.00219504
0.0022344
0.00227267
0.00230923
0.00234344
0.00237466
0.00240218
0.00242518
0.00244253
0.00245297
0.002455
0.00244679
0.00242597
0.0023894
0.00233282
0.00225033
0.00213389
0.00197267
0.00175343
0.00146285
0.00109179
0.000665563
0.000292363
8.17092e-05
1.32979e-05
1.58402e-05
0.00168707
0.00168692
0.00168706
0.00168818
0.00169097
0.00169609
0.00170406
0.00171524
0.00172983
0.0017479
0.0017694
0.00179422
0.00182216
0.00185301
0.0018865
0.00192237
0.00196031
0.002
0.0020411
0.00208322
0.00212591
0.00216872
0.0022111
0.00225252
0.00229239
0.0023301
0.00236504
0.00239661
0.00242414
0.00244672
0.00246329
0.00247268
0.00247347
0.0024639
0.00244166
0.00240366
0.00234566
0.00226181
0.00214407
0.00198159
0.00176112
0.00146928
0.00109678
0.000668868
0.000293933
8.21605e-05
1.3365e-05
1.58811e-05
0.0016138
0.00161505
0.00161776
0.00162239
0.00162942
0.00163932
0.00165241
0.00166891
0.00168892
0.00171242
0.0017393
0.0017694
0.00180251
0.00183838
0.00187672
0.00191726
0.00195964
0.00200353
0.00204852
0.00209417
0.00214001
0.00218551
0.00223013
0.00227329
0.00231441
0.00235291
0.00238822
0.00241982
0.00244693
0.00246869
0.00248413
0.00249217
0.00249147
0.00248033
0.00245651
0.00241693
0.0023574
0.00227208
0.00215294
0.00198915
0.00176742
0.00147435
0.00110055
0.000671265
0.00029504
8.24749e-05
1.34101e-05
1.58993e-05
0.00154327
0.00154594
0.00155127
0.00155946
0.00157079
0.00158549
0.00160374
0.00162561
0.00165109
0.00168008
0.00171242
0.0017479
0.00178627
0.00182725
0.00187054
0.0019158
0.00196265
0.0020107
0.00205949
0.00210853
0.0021573
0.00220524
0.00225177
0.00229633
0.00233835
0.00237729
0.00241269
0.00244391
0.00247021
0.0024908
0.00250483
0.00251129
0.00250891
0.00249605
0.0024705
0.00242923
0.00236805
0.00228117
0.00216054
0.00199536
0.00177235
0.00147807
0.00110308
0.000672736
0.000295675
8.2649e-05
1.34327e-05
1.58937e-05
0.0014763
0.00148039
0.00148832
0.00150004
0.00151562
0.00153508
0.00155844
0.00158565
0.00161659
0.00165109
0.00168892
0.00172983
0.00177352
0.00181967
0.00186793
0.00191792
0.0019692
0.00202131
0.00207374
0.00212595
0.00217738
0.00222744
0.00227555
0.00232115
0.00236374
0.00240288
0.002438
0.00246846
0.00249361
0.00251277
0.00252517
0.00252988
0.00252568
0.00251099
0.00248362
0.00244057
0.00237767
0.00228913
0.00216694
0.00200031
0.00177596
0.0014805
0.00110444
0.000673319
0.000295855
8.26881e-05
1.34334e-05
1.58647e-05
0.00141369
0.00141915
0.00142959
0.00144474
0.00146442
0.00148852
0.00151687
0.00154932
0.00158565
0.00162561
0.00166891
0.00171524
0.00176424
0.00181555
0.00186874
0.00192337
0.00197894
0.00203493
0.00209077
0.00214587
0.00219963
0.00225147
0.00230081
0.00234716
0.0023901
0.0024291
0.00246356
0.00249294
0.00251671
0.00253426
0.0025449
0.00254777
0.00254169
0.00252511
0.00249587
0.00245098
0.0023863
0.00229605
0.00217224
0.00200409
0.00177839
0.00148177
0.00110473
0.00067311
0.000295629
8.26067e-05
1.34146e-05
1.58147e-05
0.00135617
0.00136292
0.00137572
0.0013941
0.0014177
0.00144621
0.00147936
0.00151687
0.00155844
0.00160374
0.00165241
0.00170406
0.00175828
0.00181463
0.0018726
0.00193169
0.00199133
0.00205092
0.00210985
0.0021675
0.00222325
0.00227652
0.00232681
0.00237373
0.00241671
0.0024552
0.00248872
0.00251682
0.00253905
0.0025549
0.00256375
0.00256475
0.00255679
0.00253832
0.0025072
0.00246047
0.002394
0.00230201
0.00217655
0.00200688
0.00177981
0.00148207
0.00110416
0.000672255
0.000295075
8.24279e-05
1.33802e-05
1.57479e-05
0.00130443
0.00131236
0.00132734
0.0013487
0.00137591
0.00140855
0.00144621
0.00148852
0.00153508
0.00158549
0.00163932
0.00169609
0.00175532
0.00181646
0.00187896
0.0019422
0.00200556
0.00206839
0.00213003
0.00218984
0.00224723
0.00230167
0.00235278
0.00239997
0.00244266
0.00248039
0.00251278
0.00253949
0.00256014
0.0025743
0.00258137
0.00258056
0.00257077
0.00255047
0.00251754
0.00246902
0.00240078
0.00230709
0.00218001
0.00200883
0.00178044
0.00148163
0.00110295
0.000670938
0.000294289
8.2181e-05
1.33348e-05
1.567e-05
0.00125915
0.00126813
0.00128504
0.00130906
0.00133954
0.00137591
0.0014177
0.00146442
0.00151562
0.00157079
0.00162942
0.00169097
0.00175483
0.0018204
0.00188701
0.00195397
0.00202061
0.00208623
0.00215015
0.00221175
0.00227051
0.00232602
0.00237766
0.00242481
0.00246696
0.00250378
0.00253497
0.00256029
0.00257942
0.00259197
0.00259739
0.00259489
0.00258339
0.00256139
0.00252675
0.00247654
0.00240664
0.00231134
0.00218273
0.00201012
0.00178049
0.00148071
0.00110135
0.000669367
0.000293382
8.18992e-05
1.32841e-05
1.55876e-05
0.00122104
0.00123091
0.00124946
0.00127577
0.00130906
0.0013487
0.0013941
0.00144473
0.00150004
0.00155946
0.00162239
0.00168818
0.00175614
0.00182558
0.00189574
0.00196588
0.00203526
0.00210317
0.00216894
0.00223204
0.00229203
0.00234833
0.0024002
0.00244708
0.00248858
0.00252444
0.00255449
0.00257852
0.00259628
0.00260739
0.00261133
0.00260733
0.00259432
0.0025708
0.00253465
0.00248293
0.00241155
0.00231481
0.00218481
0.00201094
0.0017802
0.00147956
0.00109965
0.000667756
0.000292467
8.16168e-05
1.32338e-05
1.55083e-05
0.00119089
0.00120146
0.00122132
0.00124946
0.00128504
0.00132734
0.00137572
0.00142959
0.00148832
0.00155127
0.00161776
0.00168706
0.00175841
0.00183099
0.00190401
0.00197667
0.00204819
0.00211786
0.00218509
0.00224941
0.00231039
0.00236719
0.00241908
0.00246559
0.00250642
0.00254143
0.00257048
0.00259343
0.00261003
0.00261996
0.00262268
0.00261744
0.00260319
0.00257841
0.002541
0.00248803
0.00241542
0.00231748
0.00218634
0.00201141
0.00177976
0.00147843
0.00109808
0.000666312
0.000291655
8.1367e-05
1.31896e-05
1.54395e-05
0.00116961
0.00118067
0.00120146
0.00123091
0.00126813
0.00131236
0.00136292
0.00141915
0.00148039
0.00154594
0.00161505
0.00168692
0.00176071
0.00183556
0.0019106
0.00198502
0.00205801
0.00212891
0.00219719
0.00226248
0.00232409
0.00238114
0.00243294
0.0024791
0.00251941
0.00255376
0.00258206
0.0026042
0.00261997
0.00262902
0.00263086
0.00262472
0.00260955
0.00258386
0.00254553
0.00249165
0.00241814
0.00231933
0.00218736
0.00201167
0.00177937
0.00147755
0.00109689
0.000665227
0.000291048
8.11807e-05
1.31566e-05
1.53885e-05
0.0011583
0.00116961
0.00119089
0.00122104
0.00125915
0.00130443
0.00135616
0.00141369
0.0014763
0.00154327
0.0016138
0.00168707
0.00176218
0.00183824
0.00191437
0.00198971
0.00206349
0.00213503
0.00220389
0.00226969
0.00233162
0.00238876
0.00244049
0.00248644
0.00252643
0.00256041
0.00258831
0.00261001
0.00262532
0.0026339
0.00263525
0.00262863
0.00261297
0.00258678
0.00254795
0.00249358
0.00241958
0.00232029
0.00218788
0.00201178
0.00177913
0.00147705
0.00109623
0.000664628
0.000290715
8.10784e-05
1.31386e-05
1.53608e-05
)
;

boundaryField
{
    inlet
    {
        type            cyclic;
    }
    outlet
    {
        type            cyclic;
    }
    walls
    {
        type            kLowReWallFunction;
        value           nonuniform List<scalar> 
96
(
5.42561e-15
1.32307e-13
8.36713e-13
2.96409e-12
7.7984e-12
1.71285e-11
3.32595e-11
5.88649e-11
9.6513e-11
1.47848e-10
2.12913e-10
2.89955e-10
3.7587e-10
4.66967e-10
5.59691e-10
6.5107e-10
7.38847e-10
8.21449e-10
8.97926e-10
9.67951e-10
1.0314e-09
1.08772e-09
1.13672e-09
1.17881e-09
1.21489e-09
1.24605e-09
1.2734e-09
1.298e-09
1.32067e-09
1.34203e-09
1.36237e-09
1.38172e-09
1.39981e-09
1.41621e-09
1.43028e-09
1.44136e-09
1.4488e-09
1.45212e-09
1.4511e-09
1.44582e-09
1.43675e-09
1.42465e-09
1.4106e-09
1.39583e-09
1.38169e-09
1.36948e-09
1.36046e-09
1.35556e-09
1.35556e-09
1.36047e-09
1.36948e-09
1.38169e-09
1.39583e-09
1.4106e-09
1.42465e-09
1.43675e-09
1.44582e-09
1.4511e-09
1.45213e-09
1.44881e-09
1.44136e-09
1.43028e-09
1.41621e-09
1.39982e-09
1.38172e-09
1.36238e-09
1.34203e-09
1.32067e-09
1.298e-09
1.27341e-09
1.24605e-09
1.21489e-09
1.17881e-09
1.13672e-09
1.08773e-09
1.03141e-09
9.67953e-10
8.97927e-10
8.2145e-10
7.38849e-10
6.51071e-10
5.59692e-10
4.66967e-10
3.7587e-10
2.89955e-10
2.12913e-10
1.47849e-10
9.65131e-11
5.88649e-11
3.32595e-11
1.71286e-11
7.79841e-12
2.9641e-12
8.36713e-13
1.32307e-13
5.42561e-15
)
;
    }
    symPlanes
    {
        type            symmetry;
    }
}


// ************************************************************************* //
