/*--------------------------------*- C++ -*----------------------------------*\
| =========                 |                                                 |
| \\      /  F ield         | OpenFOAM: The Open Source CFD Toolbox           |
|  \\    /   O peration     | Version:  2412                                  |
|   \\  /    A nd           | Website:  www.openfoam.com                      |
|    \\/     M anipulation  |                                                 |
\*---------------------------------------------------------------------------*/
FoamFile
{
    version     2.0;
    format      ascii;
    arch        "LSB;label=32;scalar=64";
    class       volScalarField;
    location    "1830";
    object      nut;
}
// * * * * * * * * * * * * * * * * * * * * * * * * * * * * * * * * * * * * * //

dimensions      [0 2 -1 0 0 0 0];

internalField   nonuniform List<scalar> 
2304
(
6.2302e-09
6.24149e-09
6.26217e-09
6.29006e-09
6.32222e-09
6.35562e-09
6.38725e-09
6.41435e-09
6.43461e-09
6.44636e-09
6.44864e-09
6.44126e-09
6.42467e-09
6.39988e-09
6.36828e-09
6.33128e-09
6.29017e-09
6.24592e-09
6.19905e-09
6.14944e-09
6.09636e-09
6.03826e-09
5.97295e-09
5.89771e-09
5.80935e-09
5.70455e-09
5.5801e-09
5.43353e-09
5.26352e-09
5.06931e-09
4.84836e-09
4.59784e-09
4.31577e-09
4.00111e-09
3.65432e-09
3.27818e-09
2.87888e-09
2.4666e-09
2.05513e-09
1.66017e-09
1.29633e-09
9.7425e-10
6.99035e-10
4.71594e-10
2.90696e-10
1.54422e-10
6.13963e-11
1.2431e-11
3.15708e-08
3.16141e-08
3.1693e-08
3.1799e-08
3.19196e-08
3.20412e-08
3.215e-08
3.22328e-08
3.2278e-08
3.22766e-08
3.22229e-08
3.21151e-08
3.19547e-08
3.17464e-08
3.14977e-08
3.12164e-08
3.09109e-08
3.05883e-08
3.02546e-08
2.99136e-08
2.95674e-08
2.92116e-08
2.88369e-08
2.84313e-08
2.79804e-08
2.74669e-08
2.68721e-08
2.61789e-08
2.53759e-08
2.44587e-08
2.34152e-08
2.22316e-08
2.08957e-08
1.93954e-08
1.77209e-08
1.58706e-08
1.38592e-08
1.17266e-08
9.54404e-09
7.41137e-09
5.44138e-09
3.73964e-09
2.37295e-09
1.36096e-09
6.79665e-10
2.73115e-10
8.60112e-11
6.13962e-11
5.76446e-07
5.77135e-07
5.7839e-07
5.80072e-07
5.8197e-07
5.8386e-07
5.85507e-07
5.86686e-07
5.87195e-07
5.86877e-07
5.85632e-07
5.83421e-07
5.8027e-07
5.76256e-07
5.71509e-07
5.66168e-07
5.60384e-07
5.54289e-07
5.47997e-07
5.41591e-07
5.35162e-07
5.28694e-07
5.21973e-07
5.14796e-07
5.06907e-07
4.97999e-07
4.87719e-07
4.75734e-07
4.61812e-07
4.45872e-07
4.27678e-07
4.06952e-07
3.83435e-07
3.56841e-07
3.26895e-07
2.9344e-07
2.56617e-07
2.17068e-07
1.76095e-07
1.35667e-07
9.81922e-08
6.57521e-08
3.98333e-08
2.097e-08
8.7195e-09
2.19546e-09
2.73115e-10
1.54422e-10
4.12011e-06
4.12409e-06
4.13133e-06
4.14101e-06
4.15188e-06
4.16259e-06
4.17172e-06
4.17789e-06
4.17988e-06
4.17669e-06
4.16769e-06
4.15262e-06
4.13161e-06
4.10513e-06
4.07397e-06
4.03901e-06
4.00121e-06
3.96144e-06
3.92047e-06
3.8789e-06
3.83748e-06
3.79605e-06
3.75333e-06
3.70802e-06
3.65849e-06
3.60267e-06
3.53817e-06
3.46256e-06
3.374e-06
3.27156e-06
3.15336e-06
3.01711e-06
2.86046e-06
2.68063e-06
2.47465e-06
2.24012e-06
1.97657e-06
1.68716e-06
1.38031e-06
1.07033e-06
7.76203e-07
5.16064e-07
3.03879e-07
1.47576e-07
5.02104e-08
8.7195e-09
6.79665e-10
2.90696e-10
1.47982e-05
1.48072e-05
1.48236e-05
1.48454e-05
1.48696e-05
1.48928e-05
1.49112e-05
1.49213e-05
1.49197e-05
1.49037e-05
1.48715e-05
1.48221e-05
1.47559e-05
1.46741e-05
1.45789e-05
1.44729e-05
1.43589e-05
1.42396e-05
1.41178e-05
1.39954e-05
1.3875e-05
1.37561e-05
1.36355e-05
1.35098e-05
1.33738e-05
1.32214e-05
1.30446e-05
1.28351e-05
1.25853e-05
1.22893e-05
1.19396e-05
1.15268e-05
1.10398e-05
1.04645e-05
9.7848e-06
8.98473e-06
8.05312e-06
6.99038e-06
5.81617e-06
4.57542e-06
3.33964e-06
2.19528e-06
1.2302e-06
5.30092e-07
1.47576e-07
2.097e-08
1.36096e-09
4.71594e-10
3.38053e-05
3.38137e-05
3.38288e-05
3.3849e-05
3.38704e-05
3.38884e-05
3.38977e-05
3.38931e-05
3.3869e-05
3.38211e-05
3.37461e-05
3.36423e-05
3.35101e-05
3.33515e-05
3.31704e-05
3.29718e-05
3.27612e-05
3.25444e-05
3.2327e-05
3.2114e-05
3.19103e-05
3.17158e-05
3.15261e-05
3.13352e-05
3.11339e-05
3.09098e-05
3.06472e-05
3.03282e-05
2.99337e-05
2.94411e-05
2.88325e-05
2.80853e-05
2.71679e-05
2.60397e-05
2.46525e-05
2.29545e-05
2.08991e-05
1.8458e-05
1.56387e-05
1.25033e-05
9.19303e-06
5.95715e-06
3.16327e-06
1.2302e-06
3.03878e-07
3.98332e-08
2.37294e-09
6.99035e-10
5.84681e-05
5.84538e-05
5.84269e-05
5.83913e-05
5.8347e-05
5.82928e-05
5.82261e-05
5.81427e-05
5.80377e-05
5.79064e-05
5.77449e-05
5.75514e-05
5.7326e-05
5.70719e-05
5.67953e-05
5.65038e-05
5.62072e-05
5.5916e-05
5.56412e-05
5.53926e-05
5.51783e-05
5.50016e-05
5.48611e-05
5.47504e-05
5.46578e-05
5.45656e-05
5.44495e-05
5.42807e-05
5.40239e-05
5.34802e-05
5.2672e-05
5.16167e-05
5.02484e-05
4.84847e-05
4.62293e-05
4.33793e-05
3.98365e-05
3.55253e-05
3.04157e-05
2.45537e-05
1.8123e-05
1.16134e-05
5.95715e-06
2.19528e-06
5.16063e-07
6.57521e-08
3.73964e-09
9.74249e-10
8.62912e-05
8.62545e-05
8.61874e-05
8.60986e-05
8.59916e-05
8.58683e-05
8.57276e-05
8.5566e-05
8.53784e-05
8.51595e-05
8.4905e-05
8.4613e-05
8.42851e-05
8.39267e-05
8.35475e-05
8.31602e-05
8.27801e-05
8.24235e-05
8.21076e-05
8.18469e-05
8.16532e-05
8.15313e-05
8.14786e-05
8.14847e-05
8.15296e-05
8.1583e-05
8.16048e-05
8.15453e-05
8.13467e-05
8.09335e-05
8.02058e-05
7.9042e-05
7.72971e-05
7.48068e-05
7.14036e-05
6.69422e-05
6.13311e-05
5.45664e-05
4.67575e-05
3.81106e-05
2.84197e-05
1.8123e-05
9.19303e-06
3.33964e-06
7.76203e-07
9.81921e-08
5.44138e-09
1.29633e-09
0.000117906
0.000117841
0.000117725
0.000117571
0.000117389
0.000117182
0.000116953
0.000116698
0.000116413
0.000116091
0.00011573
0.000115328
0.00011489
0.000114424
0.000113947
0.000113478
0.000113039
0.000112654
0.000112347
0.000112137
0.000112038
0.000112054
0.000112178
0.000112389
0.000112649
0.000112908
0.000113095
0.000113126
0.000112902
0.00011231
0.000111187
0.00010934
0.000106572
0.000102677
9.74736e-05
9.08223e-05
8.26585e-05
7.30323e-05
6.2159e-05
5.03913e-05
3.81106e-05
2.45536e-05
1.25033e-05
4.57542e-06
1.07033e-06
1.35667e-07
7.41137e-09
1.66017e-09
0.000153038
0.00015294
0.000152764
0.000152533
0.00015226
0.000151954
0.000151619
0.000151255
0.000150856
0.000150419
0.00014994
0.000149422
0.000148873
0.00014831
0.000147755
0.000147237
0.000146787
0.000146436
0.000146215
0.000146146
0.000146244
0.000146507
0.000146911
0.000147418
0.000147963
0.000148453
0.000148775
0.000148788
0.000148333
0.000147229
0.000145275
0.000142248
0.000137925
0.000132099
0.000124601
0.000115328
0.000104261
9.14863e-05
7.73538e-05
6.2159e-05
4.67575e-05
3.04157e-05
1.56387e-05
5.81617e-06
1.38031e-06
1.76095e-07
9.54403e-09
2.05513e-09
0.00019107
0.000190935
0.000190692
0.000190372
0.000189996
0.000189578
0.000189126
0.00018864
0.000188118
0.000187558
0.000186958
0.000186329
0.000185683
0.000185047
0.000184454
0.000183942
0.000183553
0.000183327
0.000183296
0.000183487
0.000183904
0.000184532
0.000185324
0.000186204
0.00018706
0.000187745
0.000188076
0.00018785
0.000186846
0.000184832
0.000181584
0.000176871
0.000170474
0.000162204
0.000151935
0.00013965
0.000125491
0.000109699
9.14863e-05
7.30323e-05
5.45664e-05
3.55253e-05
1.8458e-05
6.99037e-06
1.68716e-06
2.17068e-07
1.17266e-08
2.4666e-09
0.000231498
0.000231324
0.000231011
0.0002306
0.000230118
0.000229585
0.000229013
0.000228405
0.000227762
0.000227084
0.000226377
0.000225657
0.000224948
0.000224287
0.00022372
0.000223295
0.000223064
0.000223072
0.000223354
0.000223928
0.000224781
0.000225872
0.000227114
0.000228376
0.000229487
0.000230227
0.000230336
0.000229541
0.000227572
0.000224175
0.000219123
0.000212198
0.000203206
0.000191997
0.000178506
0.000162804
0.000145173
0.000125491
0.000104261
8.26585e-05
6.13311e-05
3.98365e-05
2.08991e-05
8.05311e-06
1.97657e-06
2.56616e-07
1.38591e-08
2.87888e-09
0.000273906
0.000273693
0.000273312
0.000272812
0.000272228
0.000271587
0.000270902
0.000270183
0.000269433
0.00026866
0.000267877
0.000267109
0.000266395
0.000265783
0.000265331
0.000265101
0.000265149
0.00026552
0.000266244
0.00026732
0.000268705
0.000270314
0.000272007
0.000273584
0.0002748
0.000275372
0.000274954
0.000273198
0.000269792
0.000264481
0.00025707
0.000247388
0.000235296
0.000220713
0.000203661
0.000184316
0.000162804
0.00013965
0.000115328
9.08222e-05
6.69421e-05
4.33793e-05
2.29545e-05
8.98472e-06
2.24012e-06
2.9344e-07
1.58706e-08
3.27818e-09
0.000317927
0.00031768
0.000317237
0.000316657
0.000315983
0.000315246
0.000314468
0.000313661
0.000312837
0.00031201
0.000311206
0.000310462
0.000309829
0.000309372
0.00030916
0.00030926
0.000309728
0.000310605
0.000311894
0.000313566
0.000315533
0.000317643
0.000319712
0.000321449
0.000322517
0.000322601
0.000321293
0.000318173
0.000312859
0.000305091
0.00029474
0.000281752
0.000266084
0.000247753
0.000226886
0.000203661
0.000178506
0.000151935
0.000124601
9.74735e-05
7.14036e-05
4.62293e-05
2.46525e-05
9.78479e-06
2.47465e-06
3.26895e-07
1.77209e-08
3.65432e-09
0.000363234
0.000362957
0.000362463
0.000361818
0.000361074
0.000360268
0.000359429
0.000358577
0.000357732
0.000356921
0.000356182
0.000355568
0.000355144
0.000354988
0.000355173
0.000355768
0.000356815
0.000358335
0.000360292
0.000362599
0.000365143
0.000367642
0.000369873
0.000371485
0.000372027
0.000371115
0.000368422
0.00036352
0.000355953
0.000345336
0.000331532
0.000314706
0.000295028
0.000272645
0.000247753
0.000220713
0.000191997
0.000162204
0.000132099
0.000102677
7.48067e-05
4.84846e-05
2.60397e-05
1.04645e-05
2.68063e-06
3.56841e-07
1.93954e-08
4.00111e-09
0.000409542
0.000409243
0.000408713
0.000408026
0.00040724
0.000406405
0.000405555
0.000404723
0.000403941
0.000403251
0.000402707
0.000402376
0.000402336
0.00040267
0.000403447
0.000404724
0.000406512
0.000408789
0.000411493
0.000414383
0.000417365
0.000419997
0.000421888
0.000422759
0.000422215
0.000419278
0.000414312
0.000407114
0.000397353
0.000384076
0.000366749
0.000345742
0.000321697
0.000295028
0.000266084
0.000235296
0.000203206
0.000170474
0.000137925
0.000106571
7.72971e-05
5.02484e-05
2.71679e-05
1.10397e-05
2.86045e-06
3.83434e-07
2.08957e-08
4.31576e-09
0.000456609
0.000456299
0.000455754
0.000455054
0.00045427
0.00045346
0.000452675
0.000451958
0.000451362
0.000450944
0.000450778
0.00045094
0.000451511
0.00045257
0.000454165
0.000456314
0.000459006
0.000462079
0.000465482
0.000468765
0.00047161
0.000473815
0.000474092
0.000472589
0.000469525
0.000464537
0.000457249
0.000447313
0.000434427
0.000418364
0.000398979
0.000374235
0.000345742
0.000314706
0.000281752
0.000247388
0.000212198
0.000176871
0.000142248
0.00010934
7.9042e-05
5.16167e-05
2.80853e-05
1.15268e-05
3.01711e-06
4.06952e-07
2.22316e-08
4.59784e-09
0.000504226
0.00050392
0.000503386
0.000502715
0.000501991
0.000501287
0.000500671
0.000500208
0.00049997
0.000500036
0.000500493
0.00050142
0.000502885
0.000504927
0.000507594
0.000510756
0.000514393
0.000518092
0.000521614
0.000524785
0.000525541
0.000525305
0.000523852
0.000520812
0.000515796
0.000508423
0.000498333
0.000485211
0.00046881
0.000448978
0.000425677
0.000398979
0.000366749
0.000331532
0.00029474
0.00025707
0.000219122
0.000181584
0.000145275
0.000111186
8.02058e-05
5.2672e-05
2.88325e-05
1.19396e-05
3.15336e-06
4.27677e-07
2.34152e-08
4.84836e-09
0.000552212
0.000551927
0.000551441
0.000550857
0.000550274
0.000549787
0.000549488
0.00054947
0.000549828
0.000550658
0.000552048
0.000554065
0.000556765
0.000560033
0.000563912
0.000567963
0.000571987
0.000575559
0.00057692
0.000577656
0.000577494
0.000576083
0.00057305
0.000568002
0.000560548
0.000550316
0.000536982
0.00052029
0.000500073
0.000476282
0.000448978
0.000418364
0.000384076
0.000345336
0.000305091
0.000264481
0.000224175
0.000184832
0.000147229
0.00011231
8.09334e-05
5.34802e-05
2.94411e-05
1.22893e-05
3.27156e-06
4.45871e-07
2.44587e-08
5.06931e-09
0.000600409
0.00060017
0.000599782
0.000599362
0.000599033
0.000598919
0.000599144
0.000599832
0.000601099
0.000603042
0.000605724
0.000609206
0.000613406
0.00061793
0.000622466
0.000626439
0.000628327
0.000629805
0.000630653
0.000630559
0.000629189
0.000626162
0.00062108
0.000613545
0.00060318
0.000589652
0.000572696
0.000552137
0.000527911
0.000500073
0.00046881
0.000434427
0.000397353
0.000355953
0.000312859
0.000269792
0.000227572
0.000186846
0.000148333
0.000112902
8.13466e-05
5.40238e-05
2.99336e-05
1.25853e-05
3.37399e-06
4.61811e-07
2.53758e-08
5.26351e-09
0.000648685
0.000648527
0.000648307
0.000648163
0.000648247
0.000648721
0.000649748
0.000651481
0.000654043
0.000657515
0.000661882
0.000667067
0.000672363
0.000677338
0.000679677
0.000681758
0.000683413
0.000684385
0.000684386
0.000683069
0.000680056
0.000674948
0.000667341
0.000656853
0.000643146
0.000625948
0.000605076
0.000580457
0.000552137
0.00052029
0.00048521
0.000447312
0.000407114
0.00036352
0.000318172
0.000273198
0.000229541
0.00018785
0.000148788
0.000113126
8.15452e-05
5.42806e-05
3.03282e-05
1.28351e-05
3.46256e-06
4.75733e-07
2.61788e-08
5.43352e-09
0.00069695
0.000696922
0.000696971
0.000697259
0.000697978
0.000699335
0.000701527
0.000704719
0.000709026
0.000714464
0.000720706
0.000726912
0.000730711
0.000733338
0.000735689
0.000737558
0.000738706
0.000738834
0.000737601
0.000734628
0.000729513
0.000721851
0.000711258
0.000697391
0.000679972
0.000658814
0.000633836
0.000605076
0.000572696
0.000536982
0.000498333
0.000457249
0.000414312
0.000368422
0.000321293
0.000274954
0.000230336
0.000188076
0.000148775
0.000113095
8.16047e-05
5.44495e-05
3.06472e-05
1.30446e-05
3.53816e-06
4.87719e-07
2.6872e-08
5.58009e-09
0.000745178
0.000745352
0.000745817
0.00074676
0.00074842
0.000751045
0.000754846
0.000759979
0.000766494
0.000773927
0.000781083
0.000784242
0.000787234
0.000789904
0.000792055
0.000793434
0.000793745
0.000792643
0.000789749
0.000784662
0.000776977
0.000766306
0.000752305
0.000734694
0.00071328
0.000687977
0.000658814
0.000625948
0.000589652
0.000550316
0.000508423
0.000464537
0.000419278
0.000371115
0.000322601
0.000275372
0.000230227
0.000187744
0.000148453
0.000112908
8.1583e-05
5.45655e-05
3.09098e-05
1.32214e-05
3.60267e-06
4.97998e-07
2.74668e-08
5.70454e-09
0.000793471
0.000793953
0.00079504
0.000796948
0.000799955
0.00080432
0.000810243
0.000817818
0.00082652
0.000834156
0.000837731
0.00084114
0.000844199
0.000846697
0.000848377
0.000848935
0.000848027
0.000845269
0.000840262
0.000832598
0.000821892
0.000807795
0.000790028
0.000768395
0.000742803
0.00071328
0.000679972
0.000643146
0.00060318
0.000560547
0.000515796
0.000469525
0.000422215
0.000372026
0.000322517
0.0002748
0.000229487
0.00018706
0.000147962
0.000112649
8.15295e-05
5.46578e-05
3.11339e-05
1.33738e-05
3.65848e-06
5.06906e-07
2.79804e-08
5.80935e-09
0.000842153
0.00084309
0.000845082
0.000848359
0.000853208
0.000859854
0.000868428
0.000878422
0.000886995
0.000891006
0.00089486
0.000898361
0.000901274
0.000903327
0.000904209
0.000903568
0.000901018
0.000896156
0.000888575
0.000877888
0.000863748
0.000845872
0.000824065
0.000798232
0.000768395
0.000734694
0.000697391
0.000656853
0.000613545
0.000568002
0.000520812
0.000472589
0.000422759
0.000371485
0.000321449
0.000273584
0.000228376
0.000186204
0.000147418
0.000112389
8.14847e-05
5.47503e-05
3.13352e-05
1.35098e-05
3.70802e-06
5.14795e-07
2.84313e-08
5.8977e-09
0.000891906
0.000893486
0.00089673
0.00090186
0.000909105
0.000918546
0.000929713
0.000939494
0.000943916
0.000948227
0.000952201
0.000955581
0.000958077
0.000959361
0.000959068
0.000956807
0.000952169
0.000944746
0.000934148
0.000920028
0.000902105
0.000880181
0.000854162
0.000824065
0.000790028
0.000752305
0.000711258
0.000667341
0.00062108
0.00057305
0.000523852
0.000474092
0.000421887
0.000369873
0.000319712
0.000272007
0.000227114
0.000185324
0.000146911
0.000112178
8.14786e-05
5.4861e-05
3.15261e-05
1.36355e-05
3.75332e-06
5.21972e-07
2.88368e-08
5.97295e-09
0.00094389
0.000946334
0.000951182
0.000958699
0.000968742
0.000980733
0.000991614
0.000996379
0.00100111
0.00100556
0.00100944
0.00101243
0.00101419
0.00101432
0.00101244
0.00100811
0.00100093
0.000990504
0.000976482
0.000958585
0.000936613
0.000910473
0.000880181
0.000845872
0.000807795
0.000766306
0.000721851
0.000674948
0.000626162
0.000576083
0.000525305
0.000473814
0.000419997
0.000367642
0.000317643
0.000270313
0.000225872
0.000184532
0.000146507
0.000112054
8.15312e-05
5.50016e-05
3.17158e-05
1.37561e-05
3.79605e-06
5.28694e-07
2.92115e-08
6.03825e-09
0.000999774
0.00100331
0.00101004
0.0010201
0.00103219
0.0010434
0.00104838
0.00105346
0.00105834
0.00106271
0.00106623
0.0010685
0.00106914
0.00106771
0.00106379
0.00105694
0.00104677
0.00103294
0.00101515
0.000993211
0.000967026
0.000936613
0.000902105
0.000863748
0.000821892
0.000776977
0.000729513
0.000680056
0.000629189
0.000577494
0.000525541
0.000471609
0.000417365
0.000365143
0.000315533
0.000268705
0.000224781
0.000183904
0.000146244
0.000112038
8.16532e-05
5.51783e-05
3.19103e-05
1.3875e-05
3.83747e-06
5.35161e-07
2.95673e-08
6.09635e-09
0.0010613
0.00106593
0.00107432
0.00108525
0.00109501
0.00110002
0.00110529
0.00111051
0.00111532
0.00111934
0.00112216
0.00112334
0.00112244
0.001119
0.00111258
0.00110277
0.00108921
0.00107162
0.00104981
0.00102366
0.00099321
0.000958585
0.000920028
0.000877888
0.000832598
0.000784662
0.000734628
0.000683069
0.000630559
0.000577655
0.000524785
0.000468765
0.000414383
0.000362599
0.000313566
0.00026732
0.000223928
0.000183487
0.000146146
0.000112137
8.18469e-05
5.53926e-05
3.2114e-05
1.39954e-05
3.8789e-06
5.4159e-07
2.99135e-08
6.14943e-09
0.0011282
0.0011329
0.00114134
0.00114671
0.00115147
0.00115672
0.00116211
0.00116725
0.00117171
0.00117505
0.0011768
0.00117646
0.00117357
0.00116766
0.0011583
0.00114512
0.00112782
0.00110622
0.00108021
0.00104981
0.00101515
0.000976482
0.000934148
0.000888575
0.000840262
0.000789749
0.000737601
0.000684386
0.000630652
0.00057692
0.000521614
0.000465482
0.000411493
0.000360292
0.000311894
0.000266244
0.000223354
0.000183296
0.000146214
0.000112347
8.21075e-05
5.56411e-05
3.2327e-05
1.41177e-05
3.92047e-06
5.47996e-07
3.02546e-08
6.19904e-09
0.00119412
0.0011958
0.00119888
0.00120306
0.001208
0.00121332
0.00121859
0.00122336
0.00122714
0.00122942
0.00122966
0.00122736
0.00122202
0.00121318
0.00120046
0.00118356
0.00116226
0.00113647
0.00110622
0.00107162
0.00103294
0.000990504
0.000944746
0.000896156
0.000845269
0.000792643
0.000738834
0.000684385
0.000629805
0.000575559
0.000518092
0.000462079
0.000408789
0.000358335
0.000310605
0.00026552
0.000223072
0.000183327
0.000146436
0.000112654
8.24235e-05
5.5916e-05
3.25444e-05
1.42396e-05
3.96143e-06
5.54288e-07
3.05883e-08
6.24591e-09
0.00125026
0.00125201
0.00125519
0.00125945
0.00126438
0.00126953
0.00127441
0.00127848
0.00128119
0.00128197
0.00128025
0.00127551
0.00126725
0.00125507
0.00123864
0.00121775
0.00119228
0.00116226
0.00112782
0.00108921
0.00104677
0.00100093
0.000952169
0.000901018
0.000848027
0.000793745
0.000738706
0.000683413
0.000628327
0.000571987
0.000514393
0.000459006
0.000406512
0.000356815
0.000309728
0.000265149
0.000223064
0.000183553
0.000146787
0.000113039
8.27801e-05
5.62072e-05
3.27612e-05
1.43588e-05
4.0012e-06
5.60383e-07
3.09108e-08
6.29016e-09
0.00130658
0.00130834
0.00131151
0.00131567
0.00132037
0.00132506
0.0013292
0.00133218
0.00133338
0.0013322
0.00132805
0.0013204
0.00130881
0.00129292
0.0012725
0.00124744
0.00121775
0.00118356
0.00114512
0.00110277
0.00105694
0.00100811
0.000956807
0.000903568
0.000848935
0.000793434
0.000737558
0.000681758
0.000626439
0.000567963
0.000510756
0.000456314
0.000404724
0.000355768
0.00030926
0.000265101
0.000223295
0.000183942
0.000147237
0.000113478
8.31602e-05
5.65037e-05
3.29717e-05
1.44729e-05
4.03901e-06
5.66167e-07
3.12163e-08
6.33127e-09
0.0013629
0.00136459
0.00136759
0.00137144
0.00137562
0.00137953
0.00138254
0.00138399
0.00138322
0.00137959
0.00137253
0.00136155
0.00134625
0.00132637
0.00130179
0.0012725
0.00123864
0.00120046
0.0011583
0.00111258
0.00106379
0.00101244
0.000959068
0.000904209
0.000848377
0.000792055
0.000735689
0.000679677
0.000622466
0.000563912
0.000507594
0.000454165
0.000403447
0.000355173
0.00030916
0.000265331
0.00022372
0.000184454
0.000147755
0.000113947
8.35475e-05
5.67952e-05
3.31704e-05
1.45789e-05
4.07397e-06
5.71508e-07
3.14976e-08
6.36828e-09
0.00141893
0.00142046
0.00142312
0.00142641
0.00142974
0.00143248
0.00143393
0.00143339
0.00143017
0.00142363
0.00141323
0.00139853
0.00137923
0.00135518
0.00132637
0.00129292
0.00125507
0.00121318
0.00116766
0.001119
0.00106771
0.00101432
0.000959361
0.000903327
0.000846697
0.000789904
0.000733338
0.000677338
0.00061793
0.000560033
0.000504927
0.00045257
0.00040267
0.000354988
0.000309372
0.000265783
0.000224287
0.000185047
0.00014831
0.000114424
8.39266e-05
5.70719e-05
3.33515e-05
1.46741e-05
4.10513e-06
5.76256e-07
3.17464e-08
6.39987e-09
0.00147433
0.00147558
0.00147769
0.00148013
0.00148227
0.00148343
0.00148288
0.00147987
0.00147372
0.00146383
0.00144971
0.001431
0.00140752
0.00137923
0.00134625
0.00130881
0.00126725
0.00122202
0.00117357
0.00112244
0.00106914
0.00101419
0.000958077
0.000901274
0.000844199
0.000787234
0.000730711
0.000672363
0.000613406
0.000556765
0.000502885
0.000451511
0.000402336
0.000355144
0.000309829
0.000266395
0.000224948
0.000185683
0.000148873
0.00011489
8.42851e-05
5.7326e-05
3.35101e-05
1.47559e-05
4.13161e-06
5.80269e-07
3.19547e-08
6.42466e-09
0.00152863
0.00152949
0.00153083
0.00153211
0.00153269
0.00153184
0.00152882
0.00152289
0.00151339
0.00149977
0.00148163
0.00145873
0.001431
0.00139853
0.00136155
0.0013204
0.00127551
0.00122736
0.00117646
0.00112334
0.0010685
0.00101243
0.000955581
0.000898361
0.00084114
0.000784242
0.000726912
0.000667067
0.000609206
0.000554065
0.00050142
0.00045094
0.000402376
0.000355568
0.000310461
0.000267109
0.000225657
0.000186328
0.000149422
0.000115328
8.4613e-05
5.75513e-05
3.36423e-05
1.48221e-05
4.15262e-06
5.83421e-07
3.21151e-08
6.44125e-09
0.00158131
0.00158166
0.001582
0.00158181
0.00158043
0.00157716
0.00157124
0.00156198
0.00154876
0.00153113
0.00150879
0.00148163
0.00144971
0.00141323
0.00137253
0.00132805
0.00128025
0.00122966
0.0011768
0.00112216
0.00106623
0.00100944
0.000952201
0.00089486
0.000837731
0.000781083
0.000720706
0.000661882
0.000605724
0.000552048
0.000500493
0.000450778
0.000402707
0.000356182
0.000311206
0.000267877
0.000226377
0.000186958
0.00014994
0.00011573
8.4905e-05
5.77449e-05
3.3746e-05
1.48715e-05
4.16768e-06
5.85631e-07
3.22229e-08
6.44863e-09
0.00163179
0.00163149
0.0016306
0.00162863
0.00162495
0.00161886
0.00160967
0.00159673
0.00157953
0.00155772
0.00153113
0.00149977
0.00146383
0.00142363
0.00137959
0.0013322
0.00128197
0.00122942
0.00117505
0.00111934
0.00106271
0.00100556
0.000948228
0.000891006
0.000834156
0.000773928
0.000714464
0.000657515
0.000603042
0.000550658
0.000500036
0.000450944
0.000403251
0.000356921
0.00031201
0.00026866
0.000227084
0.000187558
0.000150419
0.000116091
8.51595e-05
5.79064e-05
3.38211e-05
1.49037e-05
4.17668e-06
5.86877e-07
3.22766e-08
6.44635e-09
0.00167943
0.00167838
0.00167605
0.00167202
0.00166571
0.00165649
0.00164373
0.00162689
0.00160556
0.00157953
0.00154876
0.00151339
0.00147372
0.00143017
0.00138322
0.00133338
0.00128119
0.00122714
0.00117171
0.00111532
0.00105834
0.00100111
0.000943916
0.000886995
0.00082652
0.000766494
0.000709026
0.000654043
0.000601099
0.000549828
0.00049997
0.000451362
0.000403941
0.000357732
0.000312837
0.000269433
0.000227762
0.000188118
0.000150856
0.000116413
8.53784e-05
5.80377e-05
3.3869e-05
1.49197e-05
4.17987e-06
5.87195e-07
3.2278e-08
6.4346e-09
0.00172363
0.00172172
0.00171778
0.00171146
0.00170229
0.00168971
0.0016732
0.00165235
0.00162689
0.00159673
0.00156198
0.00152289
0.00147987
0.00143339
0.00138399
0.00133218
0.00127848
0.00122336
0.00116725
0.00111051
0.00105346
0.000996379
0.000939494
0.000878422
0.000817818
0.000759979
0.000704719
0.000651481
0.000599832
0.00054947
0.000500208
0.000451958
0.000404723
0.000358577
0.000313661
0.000270183
0.000228405
0.00018864
0.000151255
0.000116698
8.5566e-05
5.81426e-05
3.3893e-05
1.49213e-05
4.17789e-06
5.86686e-07
3.22328e-08
6.41434e-09
0.0017638
0.00176097
0.00175529
0.00174655
0.00173436
0.00171832
0.00169802
0.0016732
0.00164373
0.00160967
0.00157124
0.00152882
0.00148288
0.00143393
0.00138254
0.0013292
0.00127441
0.00121859
0.00116211
0.00110529
0.00104838
0.000991614
0.000929713
0.000868429
0.000810243
0.000754846
0.000701527
0.000649748
0.000599144
0.000549488
0.000500671
0.000452675
0.000405555
0.000359429
0.000314468
0.000270902
0.000229013
0.000189126
0.000151619
0.000116953
8.57276e-05
5.82261e-05
3.38977e-05
1.49112e-05
4.17172e-06
5.85507e-07
3.21499e-08
6.38724e-09
0.00179944
0.00179565
0.0017882
0.00177698
0.00176177
0.00174229
0.00171832
0.00168971
0.00165649
0.00161886
0.00157716
0.00153184
0.00148343
0.00143248
0.00137953
0.00132506
0.00126953
0.00121332
0.00115672
0.00110002
0.0010434
0.000980733
0.000918546
0.000859855
0.000804321
0.000751045
0.000699334
0.000648721
0.000598919
0.000549787
0.000501287
0.00045346
0.000406404
0.000360268
0.000315246
0.000271587
0.000229585
0.000189578
0.000151954
0.000117182
8.58683e-05
5.82928e-05
3.38884e-05
1.48928e-05
4.16259e-06
5.8386e-07
3.20411e-08
6.35562e-09
0.00183012
0.00182539
0.0018162
0.00180259
0.00178448
0.00176177
0.00173436
0.00170229
0.00166571
0.00162495
0.00158043
0.00153269
0.00148227
0.00142974
0.00137562
0.00132037
0.00126438
0.001208
0.00115147
0.00109501
0.00103219
0.000968742
0.000909105
0.000853208
0.000799955
0.00074842
0.000697978
0.000648246
0.000599033
0.000550274
0.000501991
0.00045427
0.00040724
0.000361073
0.000315983
0.000272228
0.000230118
0.000189996
0.00015226
0.000117389
8.59916e-05
5.83469e-05
3.38704e-05
1.48696e-05
4.15188e-06
5.8197e-07
3.19195e-08
6.32221e-09
0.00185546
0.00184987
0.00183908
0.00182329
0.00180259
0.00177698
0.00174655
0.00171146
0.00167202
0.00162863
0.00158181
0.00153211
0.00148013
0.00142641
0.00137144
0.00131567
0.00125945
0.00120306
0.00114671
0.00108525
0.0010201
0.000958699
0.00090186
0.000848359
0.000796948
0.000746759
0.000697258
0.000648162
0.000599362
0.000550857
0.000502715
0.000455054
0.000408025
0.000361818
0.000316657
0.000272812
0.0002306
0.000190372
0.000152533
0.000117571
8.60985e-05
5.83913e-05
3.3849e-05
1.48454e-05
4.14101e-06
5.80071e-07
3.1799e-08
6.29005e-09
0.00187513
0.00186881
0.00185668
0.00183908
0.0018162
0.0017882
0.00175529
0.00171778
0.00167605
0.0016306
0.001582
0.00153083
0.00147769
0.00142312
0.00136759
0.00131151
0.00125519
0.00119888
0.00114134
0.00107432
0.00101004
0.000951182
0.00089673
0.000845082
0.00079504
0.000745816
0.000696971
0.000648307
0.000599782
0.000551441
0.000503386
0.000455754
0.000408713
0.000362463
0.000317237
0.000273312
0.000231011
0.000190692
0.000152764
0.000117725
8.61873e-05
5.84269e-05
3.38288e-05
1.48236e-05
4.13132e-06
5.7839e-07
3.1693e-08
6.26217e-09
0.00188875
0.0018819
0.00186881
0.00184987
0.00182539
0.00179565
0.00176097
0.00172172
0.00167838
0.00163149
0.00158166
0.00152949
0.00147558
0.00142046
0.00136459
0.00130834
0.00125201
0.0011958
0.0011329
0.00106593
0.00100331
0.000946334
0.000893486
0.000843089
0.000793953
0.000745352
0.000696921
0.000648527
0.000600169
0.000551927
0.000503919
0.000456299
0.000409243
0.000362957
0.00031768
0.000273693
0.000231324
0.000190935
0.00015294
0.000117841
8.62545e-05
5.84537e-05
3.38137e-05
1.48072e-05
4.12409e-06
5.77135e-07
3.1614e-08
6.24148e-09
0.00189584
0.00188875
0.00187513
0.00185546
0.00183012
0.00179944
0.0017638
0.00172363
0.00167943
0.00163179
0.00158131
0.00152863
0.00147433
0.00141893
0.0013629
0.00130658
0.00125026
0.00119412
0.0011282
0.0010613
0.000999774
0.00094389
0.000891906
0.000842153
0.000793471
0.000745178
0.00069695
0.000648685
0.000600409
0.000552212
0.000504226
0.000456608
0.000409542
0.000363234
0.000317927
0.000273906
0.000231498
0.00019107
0.000153038
0.000117906
8.62911e-05
5.84681e-05
3.38053e-05
1.47982e-05
4.12011e-06
5.76446e-07
3.15708e-08
6.23021e-09
)
;

boundaryField
{
    inlet
    {
        type            cyclic;
    }
    outlet
    {
        type            cyclic;
    }
    walls
    {
        type            nutLowReWallFunction;
        value           uniform 0;
    }
    symPlanes
    {
        type            symmetry;
    }
}


// ************************************************************************* //
