/*--------------------------------*- C++ -*----------------------------------*\
| =========                 |                                                 |
| \\      /  F ield         | OpenFOAM: The Open Source CFD Toolbox           |
|  \\    /   O peration     | Version:  2412                                  |
|   \\  /    A nd           | Website:  www.openfoam.com                      |
|    \\/     M anipulation  |                                                 |
\*---------------------------------------------------------------------------*/
FoamFile
{
    version     2.0;
    format      ascii;
    arch        "LSB;label=32;scalar=64";
    class       volTensorField;
    location    "1830";
    object      Omegaij;
}
// * * * * * * * * * * * * * * * * * * * * * * * * * * * * * * * * * * * * * //

dimensions      [0 0 -1 0 0 0 0];

internalField   nonuniform List<tensor> 
2304
(
(-0 0.000211391 7.54861 -0.000211391 -0 -0.0117685 -7.54861 0.0117685 -0)
(-0 0.000616116 7.55549 -0.000616116 -0 -0.0346229 -7.55549 0.0346229 -0)
(-0 0.00097449 7.56808 -0.00097449 -0 -0.0560489 -7.56808 0.0560489 -0)
(-0 0.00125576 7.58502 -0.00125576 -0 -0.0758666 -7.58502 0.0758666 -0)
(-0 0.0014299 7.60452 -0.0014299 -0 -0.0939361 -7.60452 0.0939361 -0)
(-0 0.00147968 7.62472 -0.00147968 -0 -0.110218 -7.62472 0.110218 -0)
(-0 0.00139535 7.64383 -0.00139535 -0 -0.124713 -7.64383 0.124713 -0)
(-0 0.00117706 7.66019 -0.00117706 -0 -0.137491 -7.66019 0.137491 -0)
(-0 0.000835414 7.67246 -0.000835414 -0 -0.148664 -7.67246 0.148664 -0)
(-0 0.000391487 7.67965 -0.000391487 -0 -0.158385 -7.67965 0.158385 -0)
(-0 -0.000125911 7.68123 0.000125911 -0 -0.166827 -7.68123 0.166827 -0)
(-0 -0.000683695 7.67707 0.000683695 -0 -0.174176 -7.67707 0.174176 -0)
(-0 -0.00124812 7.66745 0.00124812 -0 -0.180601 -7.66745 0.180601 -0)
(-0 -0.00178786 7.65295 0.00178786 -0 -0.186252 -7.65295 0.186252 -0)
(-0 -0.00228367 7.63437 0.00228367 -0 -0.191231 -7.63437 0.191231 -0)
(-0 -0.0027288 7.61253 0.0027288 -0 -0.195588 -7.61253 0.195588 -0)
(-0 -0.0031301 7.58817 0.0031301 -0 -0.19932 -7.58817 0.19932 -0)
(-0 -0.00350965 7.56185 0.00350965 -0 -0.202374 -7.56185 0.202374 -0)
(-0 -0.00390657 7.53384 0.00390657 -0 -0.204648 -7.53384 0.204648 -0)
(-0 -0.00437678 7.50403 0.00437678 -0 -0.205999 -7.50403 0.205999 -0)
(-0 -0.00499355 7.47192 0.00499355 -0 -0.206264 -7.47192 0.206264 -0)
(-0 -0.00584481 7.43651 0.00584481 -0 -0.205278 -7.43651 0.205278 -0)
(-0 -0.00702516 7.39641 0.00702516 -0 -0.202877 -7.39641 0.202877 -0)
(-0 -0.00863529 7.34981 0.00863529 -0 -0.19891 -7.34981 0.19891 -0)
(-0 -0.010774 7.29459 0.010774 -0 -0.193281 -7.29459 0.193281 -0)
(-0 -0.0135258 7.22843 0.0135258 -0 -0.185965 -7.22843 0.185965 -0)
(-0 -0.0169343 7.14898 0.0169343 -0 -0.177045 -7.14898 0.177045 -0)
(-0 -0.0209847 7.05419 0.0209847 -0 -0.166716 -7.05419 0.166716 -0)
(-0 -0.025667 6.94259 0.025667 -0 -0.155218 -6.94259 0.155218 -0)
(-0 -0.0311983 6.81289 0.0311983 -0 -0.142302 -6.81289 0.142302 -0)
(-0 -0.0379208 6.66228 0.0379208 -0 -0.127498 -6.66228 0.127498 -0)
(-0 -0.0460472 6.48729 0.0460472 -0 -0.110779 -6.48729 0.110779 -0)
(-0 -0.0557408 6.28443 0.0557408 -0 -0.0923523 -6.28443 0.0923523 -0)
(-0 -0.0671589 6.05018 0.0671589 -0 -0.0725654 -6.05018 0.0725654 -0)
(-0 -0.0803602 5.78112 0.0803602 -0 -0.052012 -5.78112 0.052012 -0)
(-0 -0.0951777 5.47451 0.0951777 -0 -0.0316411 -5.47451 0.0316411 -0)
(-0 -0.111105 5.12922 0.111105 -0 -0.0128081 -5.12922 0.0128081 -0)
(-0 -0.127251 4.7467 0.127251 -0 0.00281626 -4.7467 -0.00281626 -0)
(-0 -0.142448 4.33173 0.142448 -0 0.013563 -4.33173 -0.013563 -0)
(-0 -0.155585 3.89244 0.155585 -0 0.0183172 -3.89244 -0.0183172 -0)
(-0 -0.166128 3.43899 0.166128 -0 0.0173091 -3.43899 -0.0173091 -0)
(-0 -0.174474 2.98075 0.174474 -0 0.0126372 -2.98075 -0.0126372 -0)
(-0 -0.18166 2.52372 0.18166 -0 0.00726528 -2.52372 -0.00726528 -0)
(-0 -0.188773 2.07024 0.188773 -0 0.00322032 -2.07024 -0.00322032 -0)
(-0 -0.196819 1.6201 0.196819 -0 0.000993134 -1.6201 -0.000993134 -0)
(-0 -0.207186 1.17113 0.207186 -0 0.000135084 -1.17113 -0.000135084 -0)
(-0 -0.223018 0.718759 0.223018 -0 -2.82874e-05 -0.718759 2.82874e-05 -0)
(-0 -0.253968 0.253968 0.253968 -0 -2.62742e-09 -0.253968 2.62742e-09 -0)
(-0 0.000642418 7.45059 -0.000642418 -0 -0.0103738 -7.45059 0.0103738 -0)
(-0 0.00187254 7.45737 -0.00187254 -0 -0.0305281 -7.45737 0.0305281 -0)
(-0 0.00296168 7.46978 -0.00296168 -0 -0.0494326 -7.46978 0.0494326 -0)
(-0 0.00381614 7.48648 -0.00381614 -0 -0.0669407 -7.48648 0.0669407 -0)
(-0 0.00434483 7.50568 -0.00434483 -0 -0.0829422 -7.50568 0.0829422 -0)
(-0 0.00449535 7.52558 -0.00449535 -0 -0.0974008 -7.52558 0.0974008 -0)
(-0 0.00423807 7.54437 -0.00423807 -0 -0.110314 -7.54437 0.110314 -0)
(-0 0.00357346 7.56045 -0.00357346 -0 -0.121731 -7.56045 0.121731 -0)
(-0 0.00253376 7.57247 -0.00253376 -0 -0.131734 -7.57247 0.131734 -0)
(-0 0.00118299 7.57949 -0.00118299 -0 -0.14044 -7.57949 0.14044 -0)
(-0 -0.00039128 7.58095 0.00039128 -0 -0.147979 -7.58095 0.147979 -0)
(-0 -0.0020886 7.57674 0.0020886 -0 -0.154494 -7.57674 0.154494 -0)
(-0 -0.00380644 7.56713 0.00380644 -0 -0.160116 -7.56713 0.160116 -0)
(-0 -0.00544972 7.55269 0.00544972 -0 -0.164962 -7.55269 0.164962 -0)
(-0 -0.00696003 7.5342 0.00696003 -0 -0.169113 -7.5342 0.169113 -0)
(-0 -0.00831702 7.51245 0.00831702 -0 -0.172614 -7.51245 0.172614 -0)
(-0 -0.0095416 7.48817 0.0095416 -0 -0.175471 -7.48817 0.175471 -0)
(-0 -0.0107009 7.4619 0.0107009 -0 -0.177653 -7.4619 0.177653 -0)
(-0 -0.0119138 7.4339 0.0119138 -0 -0.179093 -7.4339 0.179093 -0)
(-0 -0.0133495 7.40406 0.0133495 -0 -0.1797 -7.40406 0.1797 -0)
(-0 -0.0152305 7.37188 0.0152305 -0 -0.179365 -7.37188 0.179365 -0)
(-0 -0.0178244 7.33638 0.0178244 -0 -0.177974 -7.33638 0.177974 -0)
(-0 -0.0214179 7.29618 0.0214179 -0 -0.175424 -7.29618 0.175424 -0)
(-0 -0.0263157 7.24952 0.0263157 -0 -0.171626 -7.24952 0.171626 -0)
(-0 -0.0328174 7.19432 0.0328174 -0 -0.166533 -7.19432 0.166533 -0)
(-0 -0.041181 7.12833 0.041181 -0 -0.160141 -7.12833 0.160141 -0)
(-0 -0.0515421 7.04923 0.0515421 -0 -0.152503 -7.04923 0.152503 -0)
(-0 -0.0638573 6.95496 0.0638573 -0 -0.143713 -6.95496 0.143713 -0)
(-0 -0.0780901 6.84403 0.0780901 -0 -0.133868 -6.84403 0.133868 -0)
(-0 -0.0948954 6.71512 0.0948954 -0 -0.12292 -6.71512 0.12292 -0)
(-0 -0.115309 6.5655 0.115309 -0 -0.110792 -6.5655 0.110792 -0)
(-0 -0.139966 6.39184 0.139966 -0 -0.097545 -6.39184 0.097545 -0)
(-0 -0.169361 6.1908 0.169361 -0 -0.0833449 -6.1908 0.0833449 -0)
(-0 -0.203985 5.95895 0.203985 -0 -0.0684701 -5.95895 0.0684701 -0)
(-0 -0.244046 5.6929 0.244046 -0 -0.0533521 -5.6929 0.0533521 -0)
(-0 -0.289084 5.38985 0.289084 -0 -0.038604 -5.38985 0.038604 -0)
(-0 -0.337625 5.04837 0.337625 -0 -0.0250079 -5.04837 0.0250079 -0)
(-0 -0.387012 4.66941 0.387012 -0 -0.0134257 -4.66941 0.0134257 -0)
(-0 -0.433679 4.2571 0.433679 -0 -0.00461754 -4.2571 0.00461754 -0)
(-0 -0.474105 3.81911 0.474105 -0 0.000987136 -3.81911 -0.000987136 -0)
(-0 -0.506448 3.36567 0.506448 -0 0.00353188 -3.36567 -0.00353188 -0)
(-0 -0.531793 2.90689 0.531793 -0 0.00380507 -2.90689 -0.00380507 -0)
(-0 -0.553308 2.44963 0.553308 -0 0.00287332 -2.44963 -0.00287332 -0)
(-0 -0.574288 1.99692 0.574288 -0 0.00165795 -1.99692 -0.00165795 -0)
(-0 -0.597497 1.54924 0.597497 -0 0.000716015 -1.54924 -0.000716015 -0)
(-0 -0.625904 1.10552 0.625904 -0 0.000191733 -1.10552 -0.000191733 -0)
(-0 -0.663898 0.663898 0.663898 -0 -2.86518e-09 -0.663898 2.86518e-09 -0)
(-0 -0.718759 0.223018 0.718759 -0 2.82801e-05 -0.223018 -2.82801e-05 -0)
(-0 0.00108228 7.25522 -0.00108228 -0 -0.00878883 -7.25522 0.00878883 -0)
(-0 0.00315429 7.26159 -0.00315429 -0 -0.0258723 -7.26159 0.0258723 -0)
(-0 0.00498762 7.27323 -0.00498762 -0 -0.0419095 -7.27323 0.0419095 -0)
(-0 0.00642464 7.28887 -0.00642464 -0 -0.0567915 -7.28887 0.0567915 -0)
(-0 0.0073122 7.30683 -0.0073122 -0 -0.0704397 -7.30683 0.0704397 -0)
(-0 0.00756207 7.32541 -0.00756207 -0 -0.0828229 -7.32541 0.0828229 -0)
(-0 0.00712468 7.34293 -0.00712468 -0 -0.0939344 -7.34293 0.0939344 -0)
(-0 0.00600087 7.35788 -0.00600087 -0 -0.103802 -7.35788 0.103802 -0)
(-0 0.00424498 7.36903 -0.00424498 -0 -0.112479 -7.36903 0.112479 -0)
(-0 0.00196468 7.37548 -0.00196468 -0 -0.120037 -7.37548 0.120037 -0)
(-0 -0.000692903 7.37672 0.000692903 -0 -0.126566 -7.37672 0.126566 -0)
(-0 -0.00355929 7.37265 0.00355929 -0 -0.132158 -7.37265 0.132158 -0)
(-0 -0.00646265 7.3635 0.00646265 -0 -0.136904 -7.3635 0.136904 -0)
(-0 -0.00924386 7.34979 0.00924386 -0 -0.140886 -7.34979 0.140886 -0)
(-0 -0.0118056 7.33222 0.0118056 -0 -0.144164 -7.33222 0.144164 -0)
(-0 -0.0141146 7.3115 0.0141146 -0 -0.146777 -7.3115 0.146777 -0)
(-0 -0.0162069 7.28828 0.0162069 -0 -0.148741 -7.28828 0.148741 -0)
(-0 -0.0181963 7.26302 0.0181963 -0 -0.150047 -7.26302 0.150047 -0)
(-0 -0.020283 7.23592 0.020283 -0 -0.150671 -7.23592 0.150671 -0)
(-0 -0.0227503 7.20685 0.0227503 -0 -0.150575 -7.20685 0.150575 -0)
(-0 -0.0259721 7.1753 0.0259721 -0 -0.149708 -7.1753 0.149708 -0)
(-0 -0.0303985 7.14034 0.0303985 -0 -0.148012 -7.14034 0.148012 -0)
(-0 -0.0365087 7.1007 0.0365087 -0 -0.145445 -7.1007 0.145445 -0)
(-0 -0.044811 7.05473 0.044811 -0 -0.141986 -7.05473 0.141986 -0)
(-0 -0.0558055 7.00055 0.0558055 -0 -0.137632 -7.00055 0.137632 -0)
(-0 -0.0699296 6.93608 0.0699296 -0 -0.1324 -6.93608 0.1324 -0)
(-0 -0.0874297 6.85921 0.0874297 -0 -0.126308 -6.85921 0.126308 -0)
(-0 -0.108261 6.76794 0.108261 -0 -0.119342 -6.76794 0.119342 -0)
(-0 -0.13237 6.66063 0.13237 -0 -0.111472 -6.66063 0.111472 -0)
(-0 -0.160825 6.53582 0.160825 -0 -0.102851 -6.53582 0.102851 -0)
(-0 -0.195319 6.39101 0.195319 -0 -0.0937771 -6.39101 0.0937771 -0)
(-0 -0.236892 6.22328 0.236892 -0 -0.0843906 -6.22328 0.0843906 -0)
(-0 -0.286381 6.02966 0.286381 -0 -0.0747932 -6.02966 0.0747932 -0)
(-0 -0.344651 5.80701 0.344651 -0 -0.0651607 -5.80701 0.0651607 -0)
(-0 -0.412139 5.55213 0.412139 -0 -0.0557232 -5.55213 0.0557232 -0)
(-0 -0.488227 5.26213 0.488227 -0 -0.0467189 -5.26213 0.0467189 -0)
(-0 -0.570655 4.93506 0.570655 -0 -0.0383328 -4.93506 0.0383328 -0)
(-0 -0.655169 4.57068 0.655169 -0 -0.0306233 -4.57068 0.0306233 -0)
(-0 -0.735797 4.17143 0.735797 -0 -0.0234806 -4.17143 0.0234806 -0)
(-0 -0.806196 3.74315 0.806196 -0 -0.0167255 -3.74315 0.0167255 -0)
(-0 -0.862474 3.2953 0.862474 -0 -0.0104059 -3.2953 0.0104059 -0)
(-0 -0.905884 2.83904 0.905884 -0 -0.00508977 -2.83904 0.00508977 -0)
(-0 -0.941683 2.3831 0.941683 -0 -0.00162502 -2.3831 0.00162502 -0)
(-0 -0.975453 1.93243 0.975453 -0 -0.000126916 -1.93243 0.000126916 -0)
(-0 -1.01153 1.48914 1.01153 -0 0.000168338 -1.48914 -0.000168338 -0)
(-0 -1.05363 1.05363 1.05363 -0 -1.52647e-09 -1.05363 1.52647e-09 -0)
(-0 -1.10552 0.625904 1.10552 -0 -0.000191738 -0.625904 0.000191738 -0)
(-0 -1.17113 0.207186 1.17113 -0 -0.000135091 -0.207186 0.000135091 -0)
(-0 0.00149717 6.76913 -0.00149717 -0 -0.0068803 -6.76913 0.0068803 -0)
(-0 0.0043616 6.7745 -0.0043616 -0 -0.0202638 -6.7745 0.0202638 -0)
(-0 0.00689193 6.78428 -0.00689193 -0 -0.032844 -6.78428 0.032844 -0)
(-0 0.00887168 6.79737 -0.00887168 -0 -0.0445515 -6.79737 0.0445515 -0)
(-0 0.0100904 6.81237 -0.0100904 -0 -0.0553408 -6.81237 0.0553408 -0)
(-0 0.0104272 6.82785 -0.0104272 -0 -0.0651869 -6.82785 0.0651869 -0)
(-0 0.00981504 6.84241 -0.00981504 -0 -0.0740784 -6.84241 0.0740784 -0)
(-0 0.00825612 6.85482 -0.00825612 -0 -0.0820216 -6.85482 0.0820216 -0)
(-0 0.00582625 6.86407 -0.00582625 -0 -0.0890364 -6.86407 0.0890364 -0)
(-0 0.00267367 6.86943 -0.00267367 -0 -0.0951554 -6.86943 0.0951554 -0)
(-0 -0.000999833 6.87051 0.000999833 -0 -0.10042 -6.87051 0.10042 -0)
(-0 -0.00496436 6.86721 0.00496436 -0 -0.104878 -6.86721 0.104878 -0)
(-0 -0.0089864 6.85971 0.0089864 -0 -0.108575 -6.85971 0.108575 -0)
(-0 -0.0128512 6.8484 0.0128512 -0 -0.111559 -6.8484 0.111559 -0)
(-0 -0.0164289 6.83381 0.0164289 -0 -0.113868 -6.83381 0.113868 -0)
(-0 -0.019678 6.81644 0.019678 -0 -0.115535 -6.81644 0.115535 -0)
(-0 -0.0226527 6.79674 0.0226527 -0 -0.116584 -6.79674 0.116584 -0)
(-0 -0.025514 6.77498 0.025514 -0 -0.117029 -6.77498 0.117029 -0)
(-0 -0.0285411 6.75125 0.0285411 -0 -0.116883 -6.75125 0.116883 -0)
(-0 -0.032127 6.7253 0.032127 -0 -0.116164 -6.7253 0.116164 -0)
(-0 -0.0367867 6.69663 0.0367867 -0 -0.114875 -6.69663 0.114875 -0)
(-0 -0.0431302 6.66442 0.0431302 -0 -0.113008 -6.66442 0.113008 -0)
(-0 -0.0518079 6.6276 0.0518079 -0 -0.110579 -6.6276 0.110579 -0)
(-0 -0.0635112 6.58485 0.0635112 -0 -0.107628 -6.58485 0.107628 -0)
(-0 -0.0789168 6.53469 0.0789168 -0 -0.104196 -6.53469 0.104196 -0)
(-0 -0.0986279 6.4755 0.0986279 -0 -0.100323 -6.4755 0.100323 -0)
(-0 -0.123029 6.40563 0.123029 -0 -0.0960037 -6.40563 0.0960037 -0)
(-0 -0.152168 6.3234 0.152168 -0 -0.0911218 -6.3234 0.0911218 -0)
(-0 -0.186069 6.22704 0.186069 -0 -0.0854775 -6.22704 0.0854775 -0)
(-0 -0.226103 6.11473 0.226103 -0 -0.0794294 -6.11473 0.0794294 -0)
(-0 -0.274414 5.98456 0.274414 -0 -0.0737147 -5.98456 0.0737147 -0)
(-0 -0.332395 5.83447 0.332395 -0 -0.068552 -5.83447 0.068552 -0)
(-0 -0.401245 5.66221 0.401245 -0 -0.0639688 -5.66221 0.0639688 -0)
(-0 -0.482244 5.46528 0.482244 -0 -0.0600679 -5.46528 0.0600679 -0)
(-0 -0.57617 5.24097 0.57617 -0 -0.0569241 -5.24097 0.0569241 -0)
(-0 -0.682533 4.98653 0.682533 -0 -0.0544519 -4.98653 0.0544519 -0)
(-0 -0.798792 4.69933 0.798792 -0 -0.0522703 -4.69933 0.0522703 -0)
(-0 -0.919764 4.37723 0.919764 -0 -0.0495844 -4.37723 0.0495844 -0)
(-0 -1.0376 4.01923 1.0376 -0 -0.045177 -4.01923 0.045177 -0)
(-0 -1.14292 3.62666 1.14292 -0 -0.0377513 -3.62666 0.0377513 -0)
(-0 -1.22836 3.20519 1.22836 -0 -0.0269989 -3.20519 0.0269989 -0)
(-0 -1.29369 2.76548 1.29369 -0 -0.0150584 -2.76548 0.0150584 -0)
(-0 -1.3454 2.31896 1.3454 -0 -0.00588058 -2.31896 0.00588058 -0)
(-0 -1.3913 1.87444 1.3913 -0 -0.00131593 -1.87444 0.00131593 -0)
(-0 -1.43764 1.43764 1.43764 -0 9.30824e-10 -1.43764 -9.30824e-10 -0)
(-0 -1.48914 1.01153 1.48914 -0 -0.000168339 -1.01153 0.000168339 -0)
(-0 -1.54924 0.597497 1.54924 -0 -0.000716019 -0.597497 0.000716019 -0)
(-0 -1.6201 0.196819 1.6201 -0 -0.00099314 -0.196819 0.00099314 -0)
(-0 0.00183464 5.89603 -0.00183464 -0 -0.00479001 -5.89603 0.00479001 -0)
(-0 0.00534117 5.90001 -0.00534117 -0 -0.0141133 -5.90001 0.0141133 -0)
(-0 0.00843007 5.90724 -0.00843007 -0 -0.0228907 -5.90724 0.0228907 -0)
(-0 0.0108395 5.91684 -0.0108395 -0 -0.0310908 -5.91684 0.0310908 -0)
(-0 0.0123167 5.92778 -0.0123167 -0 -0.0386914 -5.92778 0.0386914 -0)
(-0 0.0127167 5.93902 -0.0127167 -0 -0.0456705 -5.93902 0.0456705 -0)
(-0 0.0119617 5.94956 -0.0119617 -0 -0.0520102 -5.94956 0.0520102 -0)
(-0 0.010058 5.95854 -0.010058 -0 -0.0576969 -5.95854 0.0576969 -0)
(-0 0.00710038 5.96526 -0.00710038 -0 -0.0627232 -5.96526 0.0627232 -0)
(-0 0.0032694 5.96926 -0.0032694 -0 -0.0670873 -5.96926 0.0670873 -0)
(-0 -0.00119197 5.97026 0.00119197 -0 -0.0707941 -5.97026 0.0707941 -0)
(-0 -0.00600986 5.96821 0.00600986 -0 -0.0738538 -5.96821 0.0738538 -0)
(-0 -0.010909 5.96321 0.010909 -0 -0.0762811 -5.96321 0.0762811 -0)
(-0 -0.0156405 5.95548 0.0156405 -0 -0.0780933 -5.95548 0.0780933 -0)
(-0 -0.0200583 5.9453 0.0200583 -0 -0.0793121 -5.9453 0.0793121 -0)
(-0 -0.0241238 5.93289 0.0241238 -0 -0.0799621 -5.93289 0.0799621 -0)
(-0 -0.027915 5.91842 0.027915 -0 -0.0800688 -5.91842 0.0800688 -0)
(-0 -0.0316391 5.90193 0.0316391 -0 -0.0796602 -5.90193 0.0796602 -0)
(-0 -0.0356462 5.88329 0.0356462 -0 -0.0787685 -5.88329 0.0787685 -0)
(-0 -0.0404267 5.86218 0.0404267 -0 -0.077439 -5.86218 0.077439 -0)
(-0 -0.0465976 5.83807 0.0465976 -0 -0.0757066 -5.83807 0.0757066 -0)
(-0 -0.0548731 5.81032 0.0548731 -0 -0.0735985 -5.81032 0.0735985 -0)
(-0 -0.066026 5.77817 0.066026 -0 -0.0711657 -5.77817 0.0711657 -0)
(-0 -0.0808735 5.74073 0.0808735 -0 -0.0684783 -5.74073 0.0684783 -0)
(-0 -0.100206 5.69707 0.100206 -0 -0.0656049 -5.69707 0.0656049 -0)
(-0 -0.124741 5.64624 0.124741 -0 -0.0626046 -5.64624 0.0626046 -0)
(-0 -0.155001 5.58729 0.155001 -0 -0.0594796 -5.58729 0.0594796 -0)
(-0 -0.191246 5.51911 0.191246 -0 -0.0560489 -5.51911 0.0560489 -0)
(-0 -0.233797 5.44024 0.233797 -0 -0.0518025 -5.44024 0.0518025 -0)
(-0 -0.284123 5.34843 0.284123 -0 -0.0472534 -5.34843 0.0472534 -0)
(-0 -0.344381 5.24279 0.344381 -0 -0.0437355 -5.24279 0.0437355 -0)
(-0 -0.416224 5.12255 0.416224 -0 -0.0415086 -5.12255 0.0415086 -0)
(-0 -0.501227 4.9865 0.501227 -0 -0.0405165 -4.9865 0.0405165 -0)
(-0 -0.601067 4.83318 0.601067 -0 -0.0409075 -4.83318 0.0409075 -0)
(-0 -0.716972 4.6609 0.716972 -0 -0.0428025 -4.6609 0.0428025 -0)
(-0 -0.848991 4.46756 0.848991 -0 -0.046101 -4.46756 0.046101 -0)
(-0 -0.995201 4.25035 0.995201 -0 -0.0502862 -4.25035 0.0502862 -0)
(-0 -1.15094 4.00542 1.15094 -0 -0.054199 -4.00542 0.054199 -0)
(-0 -1.30827 3.72788 1.30827 -0 -0.0557847 -3.72788 0.0557847 -0)
(-0 -1.45584 3.41243 1.45584 -0 -0.0520181 -3.41243 0.0520181 -0)
(-0 -1.58153 3.05617 1.58153 -0 -0.0402254 -3.05617 0.0402254 -0)
(-0 -1.68004 2.66372 1.68004 -0 -0.022511 -2.66372 0.022511 -0)
(-0 -1.75597 2.24645 1.75597 -0 -0.00729643 -2.24645 0.00729643 -0)
(-0 -1.81797 1.81797 1.81797 -0 6.23989e-09 -1.81797 -6.23989e-09 -0)
(-0 -1.87444 1.3913 1.87444 -0 0.00131594 -1.3913 -0.00131594 -0)
(-0 -1.93243 0.975452 1.93243 -0 0.000126917 -0.975452 -0.000126917 -0)
(-0 -1.99692 0.574288 1.99692 -0 -0.00165796 -0.574288 0.00165796 -0)
(-0 -2.07024 0.188773 2.07024 -0 -0.00322032 -0.188773 0.00322032 -0)
(-0 0.0020801 4.8474 -0.0020801 -0 -0.00292357 -4.8474 0.00292357 -0)
(-0 0.00605204 4.85029 -0.00605204 -0 -0.0086146 -4.85029 0.0086146 -0)
(-0 0.00953786 4.85554 -0.00953786 -0 -0.0139791 -4.85554 0.0139791 -0)
(-0 0.0122445 4.86243 -0.0122445 -0 -0.019012 -4.86243 0.019012 -0)
(-0 0.0138954 4.87022 -0.0138954 -0 -0.0237005 -4.87022 0.0237005 -0)
(-0 0.0143316 4.87817 -0.0143316 -0 -0.0280225 -4.87817 0.0280225 -0)
(-0 0.013472 4.8856 -0.013472 -0 -0.0319544 -4.8856 0.0319544 -0)
(-0 0.0113299 4.89195 -0.0113299 -0 -0.0354693 -4.89195 0.0354693 -0)
(-0 0.00801598 4.89677 -0.00801598 -0 -0.0385429 -4.89677 0.0385429 -0)
(-0 0.00373348 4.89978 -0.00373348 -0 -0.0411532 -4.89978 0.0411532 -0)
(-0 -0.00124921 4.90083 0.00124921 -0 -0.0432837 -4.90083 0.0432837 -0)
(-0 -0.00663436 4.89988 0.00663436 -0 -0.0449236 -4.89988 0.0449236 -0)
(-0 -0.0121281 4.89696 0.0121281 -0 -0.0460682 -4.89696 0.0460682 -0)
(-0 -0.0174726 4.89213 0.0174726 -0 -0.046717 -4.89213 0.046717 -0)
(-0 -0.0225244 4.88545 0.0225244 -0 -0.0468782 -4.88545 0.0468782 -0)
(-0 -0.0272614 4.87691 0.0272614 -0 -0.0465673 -4.87691 0.0465673 -0)
(-0 -0.0317919 4.86645 0.0317919 -0 -0.0458038 -4.86645 0.0458038 -0)
(-0 -0.0363674 4.85388 0.0363674 -0 -0.0446124 -4.85388 0.0446124 -0)
(-0 -0.041396 4.8389 0.041396 -0 -0.04302 -4.8389 0.04302 -0)
(-0 -0.0474361 4.82113 0.0474361 -0 -0.0410531 -4.82113 0.0410531 -0)
(-0 -0.055163 4.8001 0.055163 -0 -0.0387503 -4.8001 0.0387503 -0)
(-0 -0.0653431 4.77531 0.0653431 -0 -0.0361628 -4.77531 0.0361628 -0)
(-0 -0.0788086 4.74624 0.0788086 -0 -0.0333344 -4.74624 0.0333344 -0)
(-0 -0.0964274 4.71241 0.0964274 -0 -0.0303126 -4.71241 0.0303126 -0)
(-0 -0.119029 4.67336 0.119029 -0 -0.0271467 -4.67336 0.0271467 -0)
(-0 -0.147369 4.62875 0.147369 -0 -0.0238829 -4.62875 0.0238829 -0)
(-0 -0.18206 4.57823 0.18206 -0 -0.0205323 -4.57823 0.0205323 -0)
(-0 -0.223581 4.52137 0.223581 -0 -0.0169023 -4.52137 0.0169023 -0)
(-0 -0.272775 4.45743 0.272775 -0 -0.0118126 -4.45743 0.0118126 -0)
(-0 -0.331011 4.38546 0.331011 -0 -0.00620878 -4.38546 0.00620878 -0)
(-0 -0.399929 4.30508 0.399929 -0 -0.00227673 -4.30508 0.00227673 -0)
(-0 -0.481333 4.21622 0.481333 -0 7.11402e-05 -4.21622 -7.11402e-05 -0)
(-0 -0.577117 4.11869 0.577117 -0 0.0011589 -4.11869 -0.0011589 -0)
(-0 -0.689204 4.01224 0.689204 -0 0.000766557 -4.01224 -0.000766557 -0)
(-0 -0.819227 3.89637 0.819227 -0 -0.0013953 -3.89637 0.0013953 -0)
(-0 -0.968013 3.77007 0.968013 -0 -0.00556326 -3.77007 0.00556326 -0)
(-0 -1.13498 3.63111 1.13498 -0 -0.011842 -3.63111 0.011842 -0)
(-0 -1.31744 3.47541 1.31744 -0 -0.020047 -3.47541 0.020047 -0)
(-0 -1.50998 3.29646 1.50998 -0 -0.0291645 -3.29646 0.0291645 -0)
(-0 -1.70301 3.08474 1.70301 -0 -0.0357037 -3.08474 0.0357037 -0)
(-0 -1.88183 2.82744 1.88183 -0 -0.032546 -2.82744 0.032546 -0)
(-0 -2.03333 2.5159 2.03333 -0 -0.0168285 -2.5159 0.0168285 -0)
(-0 -2.1538 2.15379 2.1538 -0 1.85335e-08 -2.15379 -1.85335e-08 -0)
(-0 -2.24645 1.75597 2.24645 -0 0.00729645 -1.75597 -0.00729645 -0)
(-0 -2.31896 1.3454 2.31896 -0 0.00588059 -1.3454 -0.00588059 -0)
(-0 -2.3831 0.941683 2.3831 -0 0.00162502 -0.941683 -0.00162502 -0)
(-0 -2.44963 0.553308 2.44963 -0 -0.00287332 -0.553308 0.00287332 -0)
(-0 -2.52372 0.18166 2.52372 -0 -0.00726529 -0.18166 0.00726529 -0)
(-0 0.00227794 3.91563 -0.00227794 -0 -0.00156468 -3.91563 0.00156468 -0)
(-0 0.00662725 3.91791 -0.00662725 -0 -0.00460693 -3.91791 0.00460693 -0)
(-0 0.0104293 3.92205 -0.0104293 -0 -0.00746874 -3.92205 0.00746874 -0)
(-0 0.0133639 3.92741 -0.0133639 -0 -0.0101533 -3.92741 0.0101533 -0)
(-0 0.0151446 3.93343 -0.0151446 -0 -0.0126481 -3.93343 0.0126481 -0)
(-0 0.015605 3.93952 -0.015605 -0 -0.0149301 -3.93952 0.0149301 -0)
(-0 0.0146656 3.9452 -0.0146656 -0 -0.0169735 -3.9452 0.0169735 -0)
(-0 0.0123485 3.95007 -0.0123485 -0 -0.0187482 -3.95007 0.0187482 -0)
(-0 0.00877877 3.95383 -0.00877877 -0 -0.0202252 -3.95383 0.0202252 -0)
(-0 0.00417583 3.9563 -0.00417583 -0 -0.0213769 -3.9563 0.0213769 -0)
(-0 -0.00117696 3.95737 0.00117696 -0 -0.0221798 -3.95737 0.0221798 -0)
(-0 -0.00697187 3.957 0.00697187 -0 -0.0226146 -3.957 0.0226146 -0)
(-0 -0.0129129 3.95516 0.0129129 -0 -0.022667 -3.95516 0.022667 -0)
(-0 -0.0187506 3.9518 0.0187506 -0 -0.0223245 -3.9518 0.0223245 -0)
(-0 -0.0243586 3.94683 0.0243586 -0 -0.0215821 -3.94683 0.0215821 -0)
(-0 -0.029742 3.94009 0.029742 -0 -0.0204411 -3.94009 0.0204411 -0)
(-0 -0.0350451 3.93135 0.0350451 -0 -0.0189049 -3.93135 0.0189049 -0)
(-0 -0.0405625 3.92029 0.0405625 -0 -0.0169797 -3.92029 0.0169797 -0)
(-0 -0.0467478 3.90654 0.0467478 -0 -0.0146701 -3.90654 0.0146701 -0)
(-0 -0.0541937 3.88969 0.0541937 -0 -0.0119755 -3.88969 0.0119755 -0)
(-0 -0.0636113 3.86936 0.0636113 -0 -0.00891221 -3.86936 0.00891221 -0)
(-0 -0.0757962 3.84516 0.0757962 -0 -0.00551489 -3.84516 0.00551489 -0)
(-0 -0.0915876 3.81677 0.0915876 -0 -0.00179702 -3.81677 0.00179702 -0)
(-0 -0.111848 3.78399 0.111848 -0 0.0022334 -3.78399 -0.0022334 -0)
(-0 -0.137391 3.74673 0.137391 -0 0.0065676 -3.74673 -0.0065676 -0)
(-0 -0.168964 3.70501 0.168964 -0 0.0111903 -3.70501 -0.0111903 -0)
(-0 -0.207203 3.65892 0.207203 -0 0.0160764 -3.65892 -0.0160764 -0)
(-0 -0.252655 3.60846 0.252655 -0 0.0211696 -3.60846 -0.0211696 -0)
(-0 -0.306032 3.55358 0.306032 -0 0.0265246 -3.55358 -0.0265246 -0)
(-0 -0.368776 3.49484 0.368776 -0 0.0319313 -3.49484 -0.0319313 -0)
(-0 -0.442698 3.43241 0.442698 -0 0.0373115 -3.43241 -0.0373115 -0)
(-0 -0.529435 3.36668 0.529435 -0 0.0425782 -3.36668 -0.0425782 -0)
(-0 -0.630773 3.29834 0.630773 -0 0.0474636 -3.29834 -0.0474636 -0)
(-0 -0.748696 3.22805 0.748696 -0 0.0514809 -3.22805 -0.0514809 -0)
(-0 -0.885119 3.15623 0.885119 -0 0.0538337 -3.15623 -0.0538337 -0)
(-0 -1.04161 3.08255 1.04161 -0 0.0533682 -3.08255 -0.0533682 -0)
(-0 -1.21901 3.00532 1.21901 -0 0.0486094 -3.00532 -0.0486094 -0)
(-0 -1.41692 2.92069 1.41692 -0 0.0380647 -2.92069 -0.0380647 -0)
(-0 -1.63329 2.82218 1.63329 -0 0.0212214 -2.82218 -0.0212214 -0)
(-0 -1.86446 2.70084 1.86446 -0 0.00244959 -2.70084 -0.00244959 -0)
(-0 -2.10057 2.54211 2.10057 -0 -0.00856281 -2.54211 0.00856281 -0)
(-0 -2.32364 2.32364 2.32364 -0 2.47497e-08 -2.32364 -2.47497e-08 -0)
(-0 -2.51591 2.03333 2.51591 -0 0.0168286 -2.03333 -0.0168286 -0)
(-0 -2.66372 1.68004 2.66372 -0 0.022511 -1.68004 -0.022511 -0)
(-0 -2.76548 1.29369 2.76548 -0 0.0150584 -1.29369 -0.0150584 -0)
(-0 -2.83904 0.905883 2.83904 -0 0.00508977 -0.905883 -0.00508977 -0)
(-0 -2.90689 0.531793 2.90689 -0 -0.00380507 -0.531793 0.00380507 -0)
(-0 -2.98075 0.174474 2.98075 -0 -0.0126373 -0.174474 0.0126373 -0)
(-0 0.00244533 3.19566 -0.00244533 -0 -0.000640267 -3.19566 0.000640267 -0)
(-0 0.00711294 3.19744 -0.00711294 -0 -0.00188085 -3.19744 0.00188085 -0)
(-0 0.0111759 3.20064 -0.0111759 -0 -0.00303183 -3.20064 0.00303183 -0)
(-0 0.0142917 3.20471 -0.0142917 -0 -0.00409306 -3.20471 0.00409306 -0)
(-0 0.0161715 3.20922 -0.0161715 -0 -0.00505273 -3.20922 0.00505273 -0)
(-0 0.0166454 3.21373 -0.0166454 -0 -0.00588722 -3.21373 0.00588722 -0)
(-0 0.0156383 3.21789 -0.0156383 -0 -0.00657172 -3.21789 0.00657172 -0)
(-0 0.0131814 3.22142 -0.0131814 -0 -0.00707791 -3.22142 0.00707791 -0)
(-0 0.00941209 3.22411 -0.00941209 -0 -0.00737869 -3.22411 0.00737869 -0)
(-0 0.00456043 3.22584 -0.00456043 -0 -0.00744711 -3.22584 0.00744711 -0)
(-0 -0.00108342 3.22653 0.00108342 -0 -0.00725833 -3.22653 0.00725833 -0)
(-0 -0.00721193 3.22612 0.00721193 -0 -0.00678918 -3.22612 0.00678918 -0)
(-0 -0.0135384 3.22451 0.0135384 -0 -0.00601788 -3.22451 0.00601788 -0)
(-0 -0.0198332 3.22158 0.0198332 -0 -0.00492013 -3.22158 0.00492013 -0)
(-0 -0.0259956 3.21713 0.0259956 -0 -0.00347666 -3.21713 0.00347666 -0)
(-0 -0.0320633 3.2109 0.0320633 -0 -0.00167112 -3.2109 0.00167112 -0)
(-0 -0.0382177 3.20258 0.0382177 -0 0.000513021 -3.20258 -0.000513021 -0)
(-0 -0.0447911 3.19179 0.0447911 -0 0.00309137 -3.19179 -0.00309137 -0)
(-0 -0.0522669 3.17815 0.0522669 -0 0.00608 -3.17815 -0.00608 -0)
(-0 -0.0612536 3.1613 0.0612536 -0 0.00949196 -3.1613 -0.00949196 -0)
(-0 -0.0724748 3.14093 0.0724748 -0 0.0133295 -3.14093 -0.0133295 -0)
(-0 -0.0867256 3.11682 0.0867256 -0 0.0175828 -3.11682 -0.0175828 -0)
(-0 -0.104818 3.08886 0.104818 -0 0.0222494 -3.08886 -0.0222494 -0)
(-0 -0.127573 3.05708 0.127573 -0 0.0273221 -3.05708 -0.0273221 -0)
(-0 -0.155755 3.02168 0.155755 -0 0.0327886 -3.02168 -0.0327886 -0)
(-0 -0.190073 2.98296 0.190073 -0 0.0386153 -2.98296 -0.0386153 -0)
(-0 -0.231162 2.94127 0.231162 -0 0.0447223 -2.94127 -0.0447223 -0)
(-0 -0.279603 2.89692 0.279603 -0 0.0508776 -2.89692 -0.0508776 -0)
(-0 -0.335957 2.85013 0.335957 -0 0.0562086 -2.85013 -0.0562086 -0)
(-0 -0.401461 2.80131 0.401461 -0 0.0613201 -2.80131 -0.0613201 -0)
(-0 -0.477824 2.75153 0.477824 -0 0.0675946 -2.75153 -0.0675946 -0)
(-0 -0.56651 2.70206 0.56651 -0 0.0745251 -2.70206 -0.0745251 -0)
(-0 -0.669173 2.65407 0.669173 -0 0.0811353 -2.65407 -0.0811353 -0)
(-0 -0.78783 2.6086 0.78783 -0 0.086512 -2.6086 -0.086512 -0)
(-0 -0.924766 2.56629 0.924766 -0 0.0894642 -2.56629 -0.0894642 -0)
(-0 -1.08246 2.52697 1.08246 -0 0.0885232 -2.52697 -0.0885232 -0)
(-0 -1.26339 2.48906 1.26339 -0 0.0821039 -2.48906 -0.0821039 -0)
(-0 -1.46955 2.44885 1.46955 -0 0.0687037 -2.44885 -0.0687037 -0)
(-0 -1.7012 2.39993 1.7012 -0 0.046406 -2.39993 -0.046406 -0)
(-0 -1.95816 2.33404 1.95816 -0 0.018474 -2.33404 -0.018474 -0)
(-0 -2.24193 2.24193 2.24193 -0 -3.68629e-09 -2.24193 3.68629e-09 -0)
(-0 -2.54211 2.10057 2.54211 -0 0.00856285 -2.10057 -0.00856285 -0)
(-0 -2.82744 1.88183 2.82744 -0 0.0325461 -1.88183 -0.0325461 -0)
(-0 -3.05617 1.58153 3.05617 -0 0.0402254 -1.58153 -0.0402254 -0)
(-0 -3.20519 1.22836 3.20519 -0 0.0269989 -1.22836 -0.0269989 -0)
(-0 -3.2953 0.862474 3.2953 -0 0.0104059 -0.862474 -0.0104059 -0)
(-0 -3.36567 0.506448 3.36567 -0 -0.00353187 -0.506448 0.00353187 -0)
(-0 -3.43899 0.166128 3.43899 -0 -0.0173091 -0.166128 0.0173091 -0)
(-0 0.00257635 2.6447 -0.00257635 -0 7.4686e-06 -2.6447 -7.4686e-06 -0)
(-0 0.00748607 2.646 -0.00748607 -0 2.94498e-05 -2.646 -2.94498e-05 -0)
(-0 0.0117378 2.64826 -0.0117378 -0 8.20056e-05 -2.64826 -8.20056e-05 -0)
(-0 0.0149777 2.65109 -0.0149777 -0 0.000170985 -2.65109 -0.000170985 -0)
(-0 0.0169168 2.65414 -0.0169168 -0 0.000306504 -2.65414 -0.000306504 -0)
(-0 0.017385 2.65712 -0.017385 -0 0.000511613 -2.65712 -0.000511613 -0)
(-0 0.0163129 2.65977 -0.0163129 -0 0.000808964 -2.65977 -0.000808964 -0)
(-0 0.0137402 2.66191 -0.0137402 -0 0.00122362 -2.66191 -0.00122362 -0)
(-0 0.00981252 2.66343 -0.00981252 -0 0.00177959 -2.66343 -0.00177959 -0)
(-0 0.00476451 2.66422 -0.00476451 -0 0.00250206 -2.66422 -0.00250206 -0)
(-0 -0.00111492 2.66423 0.00111492 -0 0.00341654 -2.66423 -0.00341654 -0)
(-0 -0.00752752 2.66335 0.00752752 -0 0.00454981 -2.66335 -0.00454981 -0)
(-0 -0.0142049 2.66146 0.0142049 -0 0.00593104 -2.66146 -0.00593104 -0)
(-0 -0.0209444 2.65835 0.0209444 -0 0.00759597 -2.65835 -0.00759597 -0)
(-0 -0.0276758 2.65377 0.0276758 -0 0.00957758 -2.65377 -0.00957758 -0)
(-0 -0.0344694 2.6474 0.0344694 -0 0.0119077 -2.6474 -0.0119077 -0)
(-0 -0.0415395 2.63888 0.0415395 -0 0.0146193 -2.63888 -0.0146193 -0)
(-0 -0.0492458 2.62785 0.0492458 -0 0.0177437 -2.62785 -0.0177437 -0)
(-0 -0.0580843 2.61395 0.0580843 -0 0.0213082 -2.61395 -0.0213082 -0)
(-0 -0.0686651 2.5969 0.0686651 -0 0.0253305 -2.5969 -0.0253305 -0)
(-0 -0.081697 2.5765 0.081697 -0 0.0298163 -2.5765 -0.0298163 -0)
(-0 -0.0979392 2.5527 0.0979392 -0 0.0347541 -2.5527 -0.0347541 -0)
(-0 -0.11815 2.5256 0.11815 -0 0.0401256 -2.5256 -0.0401256 -0)
(-0 -0.143081 2.49544 0.143081 -0 0.0458901 -2.49544 -0.0458901 -0)
(-0 -0.173426 2.46265 0.173426 -0 0.0519915 -2.46265 -0.0519915 -0)
(-0 -0.209841 2.42774 0.209841 -0 0.0583332 -2.42774 -0.0583332 -0)
(-0 -0.252936 2.39128 0.252936 -0 0.0647566 -2.39128 -0.0647566 -0)
(-0 -0.30331 2.35379 0.30331 -0 0.0710057 -2.35379 -0.0710057 -0)
(-0 -0.361609 2.31576 0.361609 -0 0.0766777 -2.31576 -0.0766777 -0)
(-0 -0.428699 2.2775 0.428699 -0 0.0820412 -2.2775 -0.0820412 -0)
(-0 -0.505742 2.24022 0.505742 -0 0.0873616 -2.24022 -0.0873616 -0)
(-0 -0.594136 2.20522 0.594136 -0 0.0920475 -2.20522 -0.0920475 -0)
(-0 -0.695611 2.17354 0.695611 -0 0.0951926 -2.17354 -0.0951926 -0)
(-0 -0.812327 2.14595 0.812327 -0 0.0958262 -2.14595 -0.0958262 -0)
(-0 -0.946947 2.1228 0.946947 -0 0.0929194 -2.1228 -0.0929194 -0)
(-0 -1.10275 2.10386 1.10275 -0 0.085497 -2.10386 -0.085497 -0)
(-0 -1.28373 2.08792 1.28373 -0 0.072839 -2.08792 -0.072839 -0)