/*--------------------------------*- C++ -*----------------------------------*\
| =========                 |                                                 |
| \\      /  F ield         | OpenFOAM: The Open Source CFD Toolbox           |
|  \\    /   O peration     | Version:  2412                                  |
|   \\  /    A nd           | Website:  www.openfoam.com                      |
|    \\/     M anipulation  |                                                 |
\*---------------------------------------------------------------------------*/
FoamFile
{
    version     2.0;
    format      ascii;
    arch        "LSB;label=32;scalar=64";
    class       volScalarField;
    location    "1830";
    object      omega;
}
// * * * * * * * * * * * * * * * * * * * * * * * * * * * * * * * * * * * * * //

dimensions      [0 0 -1 0 0 0 0];

internalField   nonuniform List<scalar> 
2304
(
2465.53
2465.53
2465.53
2465.53
2465.53
2465.53
2465.53
2465.53
2465.53
2465.53
2465.53
2465.53
2465.53
2465.53
2465.53
2465.53
2465.53
2465.53
2465.53
2465.53
2465.53
2465.53
2465.52
2465.52
2465.52
2465.52
2465.52
2465.52
2465.52
2465.52
2465.52
2465.52
2465.52
2465.52
2465.51
2465.51
2465.51
2465.51
2465.51
2465.51
2465.5
2465.5
2465.5
2465.5
2465.5
2465.5
2465.5
2465.5
416.162
416.164
416.167
416.171
416.175
416.178
416.18
416.18
416.178
416.174
416.167
416.158
416.148
416.135
416.12
416.104
416.085
416.063
416.037
416.008
415.975
415.947
415.914
415.876
415.832
415.782
415.725
415.661
415.589
415.503
415.403
415.294
415.175
415.049
414.92
414.796
414.686
414.597
414.534
414.494
414.533
414.529
414.473
414.572
415.99
428.87
560.701
2465.5
140.652
140.662
140.678
140.701
140.727
140.755
140.78
140.802
140.819
140.829
140.831
140.825
140.813
140.793
140.768
140.739
140.706
140.67
140.631
140.589
140.539
140.475
140.4
140.314
140.214
140.098
139.966
139.816
139.646
139.448
139.223
138.973
138.7
138.408
138.105
137.8
137.508
137.242
137.011
136.809
136.572
136.416
136.614
138.205
146.265
187.95
428.87
2465.5
70.56
70.5728
70.5961
70.627
70.6623
70.6985
70.7321
70.7603
70.7808
70.7917
70.7923
70.7824
70.7624
70.7332
70.6958
70.6513
70.6003
70.5433
70.48
70.4094
70.3271
70.2282
70.114
69.982
69.8295
69.6543
69.4548
69.2292
68.9735
68.6801
68.3497
67.9858
67.5913
67.1709
66.7333
66.291
65.8591
65.453
65.0849
64.7639
64.5069
64.5255
65.5198
69.824
85.8077
146.265
415.991
2465.5
44.9127
44.9258
44.9495
44.9806
45.0157
45.0512
45.0838
45.1106
45.1294
45.1387
45.1377
45.1263
45.1048
45.0737
45.0338
44.9854
44.9287
44.8634
44.7885
44.7024
44.6011
44.4816
44.3433
44.1838
44.0012
43.794
43.5613
43.3019
43.0127
42.6875
42.3286
41.9413
41.5304
41.1031
40.6696
40.2425
39.836
39.4636
39.1403
38.8955
38.8264
39.301
41.4448
48.4567
69.8241
138.205
414.572
2465.5
32.4277
32.4392
32.46
32.4868
32.5167
32.5464
32.5732
32.5946
32.609
32.6152
32.6127
32.6012
32.581
32.552
32.5144
32.4678
32.4116
32.3447
32.2656
32.1723
32.0616
31.9316
31.7812
31.6092
31.4149
31.1986
30.9608
30.7022
30.4222
30.1201
29.7999
29.4684
29.1336
28.8055
28.4965
28.2205
27.9916
27.8244
27.7402
27.7918
28.1376
29.2639
32.5314
41.4448
65.5198
136.614
414.474
2465.5
24.9947
25.004
25.0208
25.042
25.0651
25.0876
25.1071
25.122
25.1309
25.133
25.128
25.1157
25.0958
25.0681
25.0319
24.9865
24.9304
24.8623
24.7802
24.6822
24.566
24.4305
24.2753
24.1004
23.9068
23.6963
23.4714
23.2346
22.9883
22.7356
22.4831
22.24
22.0171
21.8271
21.6847
21.6059
21.6077
21.7099
21.9465
22.3963
23.2627
25.0837
29.2639
39.301
64.5255
136.416
414.529
2465.5
20.0294
20.0365
20.0488
20.0641
20.0801
20.0949
20.1069
20.1146
20.1173
20.1145
20.1059
20.0911
20.0698
20.0412
20.0043
19.9579
19.9004
19.8299
19.7448
19.6435
19.5245
19.3875
19.2333
19.0631
18.8796
18.686
18.4864
18.2849
18.086
17.895
17.7205
17.5731
17.4649
17.4101
17.4248
17.5278
17.7412
18.0944
18.6363
19.4687
20.8259
23.2627
28.1376
38.8264
64.507
136.572
414.533
2465.51
16.4771
16.482
16.4902
16.4998
16.5092
16.5168
16.5215
16.5223
16.5189
16.5108
16.4978
16.4795
16.4552
16.4241
16.3848
16.3358
16.2755
16.2022
16.1145
16.0112
15.8918
15.7571
15.6087
15.4492
15.2823
15.1126
14.9451
14.7853
14.6391
14.5134
14.4167
14.3596
14.3542
14.4153
14.5603
14.8109
15.1957
15.7546
16.5517
17.7063
19.4687
22.3963
27.7918
38.8955
64.7639
136.809
414.494
2465.51
13.8262
13.8291
13.8336
13.8382
13.8416
13.8429
13.8411
13.8357
13.8265
13.8132
13.7955
13.773
13.7449
13.7102
13.6675
13.6152
13.5518
13.4758
13.3864
13.283
13.1659
13.0369
12.8983
12.7538
12.608
12.466
12.3336
12.2169
12.1225
12.0574
12.0299
12.0501
12.13
12.2846
12.5329
12.8996
13.4185
14.1394
15.1395
16.5517
18.6363
21.9465
27.7402
39.1403
65.085
137.011
414.534
2465.51
11.7913
11.7924
11.7936
11.7939
11.7922
11.7878
11.7803
11.7693
11.7547
11.7363
11.714
11.687
11.6548
11.6161
11.5695
11.5138
11.4476
11.3699
11.2802
11.1788
11.0668
10.9465
10.821
10.6947
10.5724
10.4596
10.3623
10.2867
10.2392
10.2269
10.2578
10.3415
10.4902
10.7195
11.0497
11.5081
12.1331
12.9808
14.1394
15.7546
18.0944
21.7099
27.8244
39.4636
65.453
137.242
414.598
2465.51
10.1941
10.1936
10.192
10.1885
10.1823
10.1731
10.1605
10.1444
10.1248
10.1016
10.0746
10.0432
10.0066
9.96386
9.91369
9.85499
9.78678
9.7086
9.62047
9.52329
9.41884
9.3099
9.20008
9.09382
8.99607
8.91223
8.84806
8.80961
8.80318
8.83563
8.9148
9.05034
9.25466
9.54401
9.94009
10.4725
11.183
12.1331
13.4185
15.1957
17.7412
21.6077
27.9917
39.836
65.8592
137.508
414.686
2465.51
8.91618
8.91434
8.9103
8.90342
8.89333
8.87976
8.86261
8.84191
8.8177
8.78995
8.75843
8.72267
8.68198
8.63547
8.58217
8.52127
8.45225
8.37511
8.29042
8.19962
8.10491
8.0094
7.9168
7.83146
7.75816
7.7019
7.66809
7.66249
7.69127
7.76126
7.88039
8.05847
8.3083
8.64692
9.09726
9.69089
10.4725
11.5081
12.8996
14.8109
17.5278
21.606
28.2205
40.2426
66.2911
137.8
414.797
2465.51
7.87633
7.87329
7.86706
7.85727
7.8437
7.82628
7.80504
7.7801
7.75159
7.71953
7.68377
7.64393
7.59948
7.54974
7.49407
7.43203
7.36355
7.28907
7.20966
7.12713
7.04393
6.96326
6.88873
6.8244
6.7747
6.7442
6.73782
6.76101
6.81986
6.92135
7.07372
7.28711
7.57482
7.95482
8.45131
9.09726
9.94009
11.0497
12.5329
14.5603
17.4248
21.6847
28.4965
40.6696
66.7334
138.105
414.921
2465.52
7.0176
7.01349
7.00532
6.9929
6.97621
6.95528
6.93028
6.90141
6.86888
6.83278
6.79308
6.74954
6.70184
6.64961
6.59254
6.53059
6.46409
6.39391
6.32142
6.24874
6.17832
6.1133
6.05709
6.01331
5.98592
5.97919
5.99755
6.0461
6.13086
6.25902
6.43929
6.68235
7.00209
7.41807
7.95482
8.64692
9.54401
10.7195
12.2846
14.4153
17.4101
21.8271
28.8055
41.1032
67.1709
138.408
415.049
2465.52
6.29879
6.29371
6.28378
6.26899
6.24944
6.22529
6.19681
6.16429
6.12802
6.08821
6.04495
5.99825
5.94802
5.89421
5.83687
5.77635
5.71331
5.64895
5.58484
5.52315
5.46636
5.41724
5.37901
5.35483
5.34816
5.3629
5.40341
5.47466
5.58249
5.73406
5.93841
6.20714
6.55471
7.00209
7.57482
8.3083
9.25466
10.4902
12.13
14.3542
17.4649
22.0171
29.1336
41.5305
67.5913
138.7
415.175
2465.52
5.68915
5.6832
5.67167
5.65472
5.63256
5.60546
5.57378
5.5379
5.49824
5.45514
5.40891
5.35975
5.30791
5.25366
5.19736
5.13969
5.08158
5.02442
4.96985
4.91989
4.87701
4.84345
4.82198
4.81562
4.82767
4.86179
4.9223
5.01411
5.14303
5.31616
5.54257
5.83412
6.20714
6.68235
7.28711
8.05847
9.05034
10.3415
12.0501
14.3596
17.5731
22.24
29.4685
41.9413
67.9859
138.973
415.294
2465.52
5.16604
5.15928
5.14628
5.12733
5.10275
5.07293
5.03831
4.99941
4.95677
4.91093
4.86242
4.81173
4.75938
4.70597
4.65212
4.59876
4.54695
4.49804
4.45377
4.41571
4.38592
4.3667
4.36053
4.37036
4.39942
4.45129
4.53011
4.64073
4.78901
4.98216
5.22933
5.54257
5.93841
6.43929
7.07372
7.88039
8.9148
10.2578
12.0299
14.4167
17.7205
22.4831
29.7999
42.3287
68.3497
139.223
415.404
2465.52
4.71234
4.70484
4.69047
4.66966
4.64285
4.61052
4.57326
4.53172
4.48662
4.43873
4.38883
4.33769
4.2861
4.23491
4.18494
4.13713
4.09263
4.05248
4.01814
3.99126
3.97364
3.96765
3.97574
4.00067
4.0455
4.11373
4.20942
4.33742
4.50363
4.71539
4.98216
5.31616
5.73406
6.25903
6.92135
7.76126
8.83563
10.2269
12.0574
14.5134
17.895
22.7356
30.1201
42.6875
68.6801
139.448
415.503
2465.52
4.31489
4.30668
4.29103
4.2685
4.23964
4.20507
4.16551
4.1218
4.07489
4.02579
3.97556
3.92521
3.87577
3.82812
3.78322
3.74169
3.70452
3.67282
3.64791
3.63157
3.62563
3.63225
3.65377
3.6928
3.75231
3.83572
3.94707
4.09125
4.27425
4.50363
4.78901
5.14303
5.58249
6.13086
6.81986
7.69127
8.80319
10.2392
12.1225
14.6391
18.086
22.9883
30.4222
43.0127
68.9735
139.646
415.589
2465.52
3.96335
3.95449
3.93766
3.91354
3.88284
3.84632
3.8049
3.75964
3.71171
3.66242
3.61305
3.56483
3.51882
3.47569
3.43613
3.40088
3.37086
3.34739
3.33182
3.32579
3.33108
3.3497
3.38386
3.4361
3.50931
3.60689
3.73291
3.89232
4.09125
4.33742
4.64074
5.01411
5.47466
6.0461
6.76101
7.66249
8.80961
10.2867
12.2169
14.7853
18.2849
23.2346
30.7022
43.3019
69.2292
139.816
415.661
2465.52
3.64957
3.64011
3.62219
3.59666
3.56438
3.52631
3.48358
3.4375
3.38954
3.3412
3.29396
3.24906
3.20707
3.16867
3.13449
3.10557
3.08291
3.06773
3.06138
3.06539
3.08144
3.11144
3.15753
3.22217
3.30825
3.41916
3.55904
3.73292
3.94707
4.20942
4.53011
4.9223
5.40341
5.99755
6.73783
7.66809
8.84806
10.3623
12.3336
14.9451
18.4864
23.4714
30.9608
43.5613
69.4548
139.966
415.725
2465.52
3.367
3.35699
3.33813
3.31141
3.27789
3.23877
3.19544
3.14946
3.10255
3.05641
3.01237
2.97114
2.93334
2.89981
2.87141
2.84911
2.83394
2.82707
2.82976
2.84348
2.86983
2.91063
2.96799
3.04434
3.14256
3.2661
3.41916
3.60689
3.83572
4.11373
4.45129
4.86179
5.3629
5.97919
6.7442
7.7019
8.91223
10.4596
12.466
15.1126
18.686
23.6963
31.1986
43.794
69.6543
140.098
415.782
2465.52
3.11034
3.09989
3.08026
3.05266
3.01837
2.97885
2.93576
2.89094
2.84627
2.80325
2.76271
2.72533
2.6921
2.66389
2.64159
2.62614
2.61853
2.61988
2.6314
2.65448
2.69066
2.74173
2.80977
2.89721
3.00697
3.14256
3.30825
3.50931
3.75231
4.0455
4.39942
4.82767
5.34816
5.98592
6.7747
7.75816
8.99608
10.5724
12.608
15.2823
18.8796
23.9068
31.415
44.0012
69.8295
140.214
415.833
2465.53
2.87536
2.86458
2.84445
2.81639
2.78193
2.74283
2.70099
2.65844
2.61687
2.57723
2.54038
2.50737
2.47916
2.45665
2.4407
2.43222
2.43217
2.44161
2.46171
2.49379
2.53938
2.60023
2.67843
2.77644
2.89721
3.04434
3.22217
3.4361
3.6928
4.00067
4.37036
4.81562
5.35483
6.01332
6.8244
7.83146
9.09382
10.6947
12.7538
15.4492
19.0631
24.1004
31.6092
44.1838
69.982
140.314
415.877
2465.53
2.65867
2.64775
2.62749
2.59952
2.56567
2.52794
2.48842
2.44899
2.41075
2.37472
2.34208
2.31388
2.29108
2.27455
2.26512
2.26367
2.27112
2.28848
2.31688
2.35762
2.41221
2.48241
2.57031
2.67843
2.80977
2.96799
3.15753
3.38386
3.65377
3.97574
4.36054
4.82198
5.37901
6.0571
6.88873
7.9168
9.20009
10.821
12.8983
15.6087
19.2333
24.2753
31.7812
44.3433
70.1141
140.4
415.915
2465.53
2.45776
2.44693
2.42702
2.39985
2.36751
2.33215
2.29577
2.25966
2.22496
2.19304
2.16507
2.14208
2.125
2.11464
2.11184
2.11741
2.13224
2.15732
2.19375
2.24282
2.30604
2.38519
2.48241
2.60023
2.74173
2.91063
3.11144
3.3497
3.63225
3.96765
4.36671
4.84345
5.41724
6.11331
6.96326
8.00941
9.3099
10.9465
13.0369
15.7571
19.3875
24.4305
31.9316
44.4816
70.2283
140.475
415.947
2465.53
2.27094
2.26051
2.2415
2.21595
2.18602
2.15375
2.12064
2.08801
2.05735
2.02999
2.00708
1.98962
1.97846
1.97442
1.97826
1.99079
2.01287
2.04545
2.08965
2.14675
2.21827
2.30604
2.41221
2.53938
2.69066
2.86983
3.08144
3.33109
3.62563
3.97364
4.38592
4.87701
5.46636
6.17832
7.04393
8.10492
9.41884
11.0668
13.1659
15.8918
19.5245
24.566
32.0616
44.6011
70.3272
140.539
415.975
2465.53
2.0973
2.08762
2.07009
2.04687
2.01984
1.99074
1.96102
1.93233
1.90614
1.88373
1.8662
1.85448
1.8494
1.85173
1.8622
1.88159
1.91075
1.95064
2.00235
2.0672
2.14675
2.24282
2.35762
2.49379
2.65448
2.84348
3.06539
3.3258
3.63157
3.99126
4.41571
4.91989
5.52315
6.24874
7.12714
8.19962
9.52329
11.1788
13.283
16.0112
19.6435
24.6822
32.1723
44.7024
70.4094
140.589
416.008
2465.53
1.93648
1.92782
1.91219
1.89144
1.86731
1.84143
1.81553
1.79119
1.76984
1.75269
1.74076
1.73495
1.73603
1.74473
1.76177
1.78791
1.82399
1.87097
1.92998
2.00235
2.08965
2.19375
2.31688
2.46171
2.6314
2.82977
3.06138
3.33182
3.64791
4.01815
4.45377
4.96986
5.58484
6.32143
7.20966
8.29042
9.62047
11.2802
13.3864
16.1145
19.7448
24.7802
32.2656
44.7885
70.4801
140.631
416.038
2465.53
1.78796
1.78032
1.76654
1.74818
1.72701
1.70474
1.68302
1.66339
1.64717
1.63549
1.62933
1.62952
1.63678
1.65182
1.67534
1.70811
1.75095
1.80486
1.87097
1.95064
2.04545
2.15732
2.28848
2.44161
2.61988
2.82707
3.06773
3.34739
3.67282
4.05249
4.49805
5.02442
5.64895
6.39391
7.28908
8.37511
9.70861
11.3699
13.4759
16.2022
19.8299
24.8623
32.3447
44.8634
70.5433
140.67
416.063
2465.53
1.65045
1.64377
1.63177
1.61599
1.5981
1.57976
1.56255
1.54789
1.53701
1.53097
1.53067
1.53688
1.55031
1.57163
1.60155
1.64081
1.69028
1.75095
1.82399
1.91075
2.01287
2.13224
2.27112
2.43217
2.61853
2.83395
3.08291
3.37086
3.70452
4.09263
4.54695
5.08159
5.71331
6.46409
7.36356
8.45226
9.78679
11.4476
13.5518
16.2755
19.9004
24.9304
32.4116
44.9287
70.6003
140.706
416.085
2465.53
1.52284
1.5172
1.50717
1.4942
1.47987
1.46574
1.45327
1.44378
1.43839
1.43807
1.44367
1.4559
1.47545
1.50298
1.53919
1.58484
1.64081
1.70811
1.78791
1.88159
1.99079
2.11741
2.26367
2.43222
2.62614
2.84912
3.10557
3.40088
3.74169
4.13713
4.59876
5.1397
5.77635
6.53059
7.43203
8.52127
9.85499
11.5138
13.6152
16.3359
19.9579
24.9865
32.4678
44.9854
70.6513
140.739
416.104
2465.53
1.40463
1.40013
1.39224
1.3823
1.37175
1.36203
1.35447
1.35026
1.35043
1.35586
1.36734
1.38556
1.41116
1.44482
1.48724
1.53919
1.60155
1.67534
1.76177
1.8622
1.97826
2.11184
2.26512
2.4407
2.64159
2.87141
3.1345
3.43613
3.78322
4.18494
4.65213
5.19736
5.83687
6.59254
7.49407
8.58217
9.9137
11.5695
13.6675
16.3848
20.0043
25.0319
32.5144
45.0338
70.6958
140.768
416.12
2465.53
1.29551
1.29223
1.28661
1.27985
1.27324
1.26805
1.26549
1.26661
1.27235
1.28351
1.30083
1.32497
1.35657
1.39628
1.44482
1.50298
1.57163
1.65182
1.74473
1.85173
1.97442
2.11464
2.27455
2.45665
2.66389
2.89982
3.16867
3.4757
3.82812
4.23491
4.70597
5.25366
5.89422
6.64962
7.54975
8.63548
9.96386
11.6161
13.7102
16.4241
20.0412
25.0681
32.552
45.0737
70.7332
140.793
416.135
2465.53
1.19524
1.19323
1.18997
1.18648
1.18388
1.18328
1.18573
1.19216
1.20343
1.22027
1.24336
1.27335
1.31087
1.35657
1.41116
1.47545
1.55031
1.63678
1.73603
1.8494
1.97846
2.125
2.29108
2.47916
2.6921
2.93334
3.20707
3.51882
3.87577
4.2861
4.75938
5.30791
5.94802
6.70185
7.59948
8.68198
10.0066
11.6548
13.7449
16.4552
20.0698
25.0958
32.581
45.1048
70.7625
140.813
416.148
2465.53
1.10365
1.10293
1.10206
1.10186
1.10327
1.10722
1.11463
1.1263
1.14301
1.16544
1.19422
1.22999
1.27335
1.32497
1.38556
1.4559
1.53688
1.62952
1.73495
1.85448
1.98962
2.14208
2.31388
2.50737
2.72533
2.97114
3.24906
3.56483
3.92521
4.33769
4.81173
5.35975
5.99825
6.74954
7.64393
8.72267
10.0432
11.687
13.773
16.4795
20.0911
25.1157
32.6012
45.1263
70.7825
140.825
416.158
2465.53
1.02055
1.02111
1.02261
1.02566
1.031
1.03941
1.05166
1.06846
1.0905
1.1184
1.15278
1.19422
1.24336
1.30083
1.36734
1.44367
1.53067
1.62933
1.74076
1.8662
2.00708
2.16507
2.34208
2.54038
2.76271
3.01237
3.29396
3.61305
3.97556
4.38883
4.86242
5.40891
6.04496
6.79308
7.68377
8.75843
10.0746
11.714
13.7955
16.4978
20.1059
25.128
32.6127
45.1377
70.7924
140.831
416.167
2465.53
0.945755
0.947562
0.951348
0.957532
0.966671
0.979387
0.996317
1.01809
1.0453
1.07855
1.1184
1.16544
1.22027
1.28351
1.35586
1.43807
1.53097
1.63549
1.75269
1.88373
2.02999
2.19304
2.37472
2.57723
2.80325
3.05641
3.3412
3.66242
4.02579
4.43873
4.91093
5.45514
6.08821
6.83278
7.71954
8.78995
10.1016
11.7363
13.8132
16.5108
20.1146
25.133
32.6153
45.1387
70.7918
140.829
416.174
2465.53
0.879049
0.882036
0.887991
0.897147
0.909892
0.926706
0.948113
0.974653
1.00687
1.0453
1.0905
1.14301
1.20343
1.27234
1.35043
1.43839
1.53701
1.64717
1.76984
1.90614
2.05735
2.22496
2.41075
2.61687
2.84627
3.10255
3.38954
3.71171
4.07489
4.48662
4.95677
5.49824
6.12802
6.86888
7.75159
8.8177
10.1248
11.7547
13.8265
16.5189
20.1174
25.1309
32.6091
45.1295
70.7808
140.819
416.178
2465.53
0.820182
0.824262
0.832231
0.844153
0.860268
0.880932
0.90657
0.937649
0.974653
1.01809
1.06846
1.1263
1.19216
1.26661
1.35026
1.44378
1.54788
1.66339
1.79119
1.93233
2.08801
2.25966
2.44899
2.65844
2.89094
3.14946
3.4375
3.75964
4.1218
4.53172
4.99941
5.5379
6.16429
6.90141
7.7801
8.84191
10.1444
11.7693
13.8357
16.5224
20.1146
25.122
32.5947
45.1106
70.7604
140.802
416.18
2465.53
0.768887
0.773959
0.783758
0.798206
0.817417
0.841644
0.871228
0.90657
0.948113
0.996317
1.05166
1.11463
1.18573
1.26549
1.35447
1.45327
1.56255
1.68302
1.81553
1.96102
2.12064
2.29577
2.48842
2.70099
2.93576
3.19544
3.48358
3.8049
4.16551
4.57326
5.03831
5.57378
6.19681
6.93028
7.80504
8.86262
10.1605
11.7803
13.8411
16.5215
20.1069
25.1072
32.5732
45.0838
70.7321
140.78
416.18
2465.53
0.724904
0.730853
0.742277
0.758983
0.780984
0.808446
0.841644
0.880932
0.926706
0.979387
1.03941
1.10722
1.18328
1.26805
1.36203
1.46574
1.57976
1.70474
1.84143
1.99073
2.15375
2.33215
2.52794
2.74283
2.97885
3.23877
3.52631
3.84632
4.20507
4.61052
5.07293
5.60546
6.2253
6.95528
7.82628
8.87976
10.1731
11.7878
13.8429
16.5168
20.095
25.0876
32.5464
45.0512
70.6985
140.755
416.178
2465.53
0.688014
0.694715
0.707543
0.726213
0.750659
0.780984
0.817417
0.860268
0.909892
0.966671
1.031
1.10327
1.18388
1.27324
1.37175
1.47987
1.5981
1.72701
1.8673
2.01984
2.18602
2.36751
2.56567
2.78193
3.01837
3.27789
3.56438
3.88284
4.23964
4.64285
5.10275
5.63256
6.24944
6.97621
7.8437
8.89333
10.1823
11.7922
13.8416
16.5092
20.0801
25.0652
32.5167
45.0157
70.6624
140.728
416.175
2465.53
0.658079
0.665401
0.679394
0.699705
0.726213
0.758983
0.798205
0.844153
0.897147
0.957531
1.02566
1.10186
1.18648
1.27985
1.3823
1.4942
1.61599
1.74818
1.89144
2.04687
2.21595
2.39985
2.59952
2.81639
3.05266
3.31141
3.59666
3.91354
4.2685
4.66966
5.12733
5.65472
6.26899
6.9929
7.85727
8.90343
10.1885
11.7939
13.8382
16.4998
20.0641
25.042
32.4869
44.9807
70.6271
140.701
416.171
2465.53
0.635098
0.642899
0.657797
0.679394
0.707543
0.742277
0.783758
0.832231
0.887991
0.951348
1.02261
1.10206
1.18997
1.28661
1.39224
1.50717
1.63177
1.76654
1.91219
2.07009
2.2415
2.42702
2.62749
2.84445
3.08026
3.33813
3.62219
3.93766
4.29103
4.69047
5.14628
5.67168
6.28378
7.00532
7.86706
8.9103
10.192
11.7937
13.8336
16.4902
20.0488
25.0208
32.46
44.9495
70.5961
140.679
416.167
2465.53
0.619253
0.627381
0.642899
0.665401
0.694715
0.730853
0.773958
0.824262
0.882036
0.947562
1.02111
1.10293
1.19323
1.29223
1.40013
1.5172
1.64377
1.78032
1.92782
2.08762
2.26051
2.44693
2.64775
2.86458
3.09989
3.35699
3.64011
3.95449
4.30668
4.70484
5.15928
5.6832
6.29371
7.01349
7.87329
8.91434
10.1936
11.7924
13.8291
16.482
20.0365
25.004
32.4392
44.9258
70.5728
140.662
416.164
2465.53
0.610969
0.619253
0.635098
0.658079
0.688014
0.724904
0.768887
0.820181
0.879049
0.945754
1.02055
1.10365
1.19524
1.29551
1.40463
1.52284
1.65045
1.78796
1.93648
2.0973
2.27094
2.45776
2.65867
2.87536
3.11034
3.367
3.64957
3.96335
4.31489
4.71234
5.16604
5.68916
6.29879
7.0176
7.87633
8.91618
10.1941
11.7913
13.8262
16.4771
20.0294
24.9947
32.4277
44.9127
70.56
140.652
416.162
2465.53
)
;

boundaryField
{
    inlet
    {
        type            cyclic;
    }
    outlet
    {
        type            cyclic;
    }
    walls
    {
        type            omegaWallFunction;
        blending        binomial;
        n               2;
        value           nonuniform List<scalar> 
96
(
2465.5
2465.5
2465.5
2465.5
2465.5
2465.5
2465.5
2465.51
2465.51
2465.51
2465.51
2465.51
2465.51
2465.52
2465.52
2465.52
2465.52
2465.52
2465.52
2465.52
2465.52
2465.52
2465.52
2465.53
2465.53
2465.53
2465.53
2465.53
2465.53
2465.53
2465.53
2465.53
2465.53
2465.53
2465.53
2465.53
2465.53
2465.53
2465.53
2465.53
2465.53
2465.53
2465.53
2465.53
2465.53
2465.53
2465.53
2465.53
2465.53
2465.53
2465.53
2465.53
2465.53
2465.53
2465.53
2465.53
2465.53
2465.53
2465.53
2465.53
2465.53
2465.53
2465.53
2465.53
2465.53
2465.53
2465.53
2465.53
2465.53
2465.53
2465.52
2465.52
2465.52
2465.52
2465.52
2465.52
2465.52
2465.52
2465.52
2465.52
2465.52
2465.52
2465.51
2465.51
2465.51
2465.51
2465.51
2465.51
2465.5
2465.5
2465.5
2465.5
2465.5
2465.5
2465.5
2465.5
)
;
    }
    symPlanes
    {
        type            symmetry;
    }
}


// ************************************************************************* //
