/*--------------------------------*- C++ -*----------------------------------*\
| =========                 |                                                 |
| \\      /  F ield         | OpenFOAM: The Open Source CFD Toolbox           |
|  \\    /   O peration     | Version:  2412                                  |
|   \\  /    A nd           | Website:  www.openfoam.com                      |
|    \\/     M anipulation  |                                                 |
\*---------------------------------------------------------------------------*/
FoamFile
{
    version     2.0;
    format      ascii;
    arch        "LSB;label=32;scalar=64";
    class       volScalarField;
    location    "1830";
    object      p;
}
// * * * * * * * * * * * * * * * * * * * * * * * * * * * * * * * * * * * * * //

dimensions      [0 2 -2 0 0 0 0];

internalField   nonuniform List<scalar> 
2304
(
-1.65203e-10
3.01266e-06
8.57306e-06
1.62857e-05
2.57155e-05
3.64839e-05
4.82367e-05
6.06774e-05
7.35565e-05
8.6681e-05
9.99083e-05
0.000113142
0.000126327
0.000139432
0.000152454
0.00016539
0.000178243
0.000190999
0.000203641
0.000216122
0.000228385
0.000240348
0.000251925
0.000263009
0.000273488
0.000283251
0.0002922
0.000300275
0.000307464
0.000313853
0.000319305
0.000323651
0.000326763
0.000328546
0.000328938
0.000327946
0.000325677
0.000322391
0.000318517
0.000314632
0.000311369
0.000309195
0.000308109
0.000307742
0.000307702
0.000307745
0.000307769
0.000307767
-1.09647e-06
1.88227e-06
7.42867e-06
1.512e-05
2.45233e-05
3.52626e-05
4.69861e-05
5.94e-05
7.22569e-05
8.53657e-05
9.85849e-05
0.000111819
0.000125011
0.000138131
0.000151174
0.000164133
0.000177011
0.000189791
0.000202454
0.000214952
0.000227226
0.000239194
0.00025077
0.00026185
0.000272323
0.000282082
0.000291033
0.000299117
0.000306315
0.0003127
0.000318138
0.000322467
0.000325569
0.000327357
0.000327785
0.000326877
0.000324761
0.000321703
0.000318115
0.000314521
0.000311482
0.00030943
0.000308368
0.000307953
0.000307838
0.000307816
0.000307796
0.000307769
-8.00182e-06
-5.0438e-06
4.77145e-07
8.13284e-06
1.74936e-05
2.81873e-05
3.98661e-05
5.22399e-05
6.50648e-05
7.81525e-05
9.13633e-05
0.000104602
0.000117814
0.000130964
0.000144048
0.000157056
0.000169987
0.000182823
0.000195541
0.000208093
0.000220417
0.000232431
0.000244054
0.000255184
0.000265716
0.000275551
0.0002846
0.000292813
0.000300161
0.000306742
0.000312419
0.00031703
0.000320469
0.000322659
0.000323566
0.000323221
0.000321749
0.000319386
0.000316495
0.000313507
0.000310912
0.000309176
0.000308329
0.000308018
0.00030792
0.000307875
0.000307816
0.000307745
-1.27865e-05
-9.7484e-06
-4.18911e-06
3.52199e-06
1.29473e-05
2.37071e-05
3.54457e-05
4.7866e-05
6.07186e-05
7.38111e-05
8.70021e-05
0.000100196
0.000113339
0.0001264
0.000139376
0.00015226
0.000165052
0.000177734
0.000190284
0.000202651
0.000214772
0.000226563
0.000237936
0.000248788
0.000259013
0.00026851
0.000277193
0.000285013
0.000291948
0.000298199
0.00030362
0.000308036
0.000311373
0.000313595
0.000314716
0.000314809
0.000314025
0.000312601
0.000310852
0.000309092
0.000307699
0.000307159
0.00030736
0.00030771
0.000307892
0.00030792
0.000307838
0.000307702
2.27257e-05
2.59277e-05
3.17185e-05
3.97417e-05
4.95252e-05
6.06535e-05
7.27356e-05
8.54423e-05
9.84974e-05
0.000111689
0.000124863
0.000137921
0.000150812
0.000163514
0.000176036
0.000188381
0.000200563
0.000212568
0.000224377
0.000235935
0.00024718
0.000258015
0.000268321
0.000277967
0.000286818
0.000294746
0.000301635
0.000307401
0.000312
0.000315764
0.00031855
0.000320173
0.000320627
0.000319973
0.000318324
0.000315853
0.000312791
0.000309433
0.000306164
0.000303369
0.000301696
0.000302201
0.00030445
0.000306615
0.00030771
0.000308018
0.000307953
0.000307742
0.00011695
0.000120152
0.000126106
0.000134336
0.000144343
0.000155684
0.000167943
0.000180763
0.000193847
0.000206966
0.000219956
0.000232716
0.000245194
0.000257373
0.000269275
0.000280911
0.000292307
0.000303456
0.000314344
0.000324917
0.000335122
0.000344844
0.000353945
0.000362267
0.000369646
0.000375917
0.000380914
0.000384472
0.000386351
0.000386173
0.000384153
0.000380511
0.000375381
0.000368938
0.000361373
0.000352865
0.000343538
0.000333475
0.000322853
0.000311918
0.000302166
0.000297764
0.000299919
0.00030445
0.00030736
0.000308329
0.000308368
0.000308109
0.000216952
0.000219951
0.000225645
0.000233512
0.000243076
0.00025392
0.000265645
0.000277917
0.00029045
0.000303026
0.000315485
0.000327726
0.000339696
0.000351373
0.000362773
0.000373905
0.000384793
0.000395432
0.00040582
0.000415906
0.000425642
0.000434921
0.000443628
0.000451617
0.000458728
0.000464791
0.000469612
0.000472971
0.000474485
0.000472789
0.000468368
0.00046185
0.000453404
0.000443159
0.00043124
0.000417761
0.000402797
0.000386347
0.000368328
0.000347478
0.000322811
0.000303265
0.000297764
0.000302201
0.000307159
0.000309176
0.00030943
0.000309195
0.000274353
0.000277247
0.000282603
0.00029001
0.000299025
0.00030926
0.000320346
0.000331973
0.000343878
0.000355856
0.000367758
0.000379483
0.000390977
0.00040221
0.00041319
0.000423914
0.000434401
0.000444637
0.000454621
0.000464299
0.000473616
0.000482474
0.000490774
0.000498381
0.000505135
0.000510869
0.000515379
0.000518446
0.000519863
0.000519
0.00051576
0.000510175
0.000502194
0.000491788
0.000479026
0.000464129
0.00044747
0.000429538
0.000411085
0.000390775
0.000359542
0.000322811
0.000302166
0.000301696
0.000307699
0.000310912
0.000311482
0.000311369
0.000305486
0.000308339
0.000313533
0.000320715
0.000329451
0.000339363
0.000350094
0.000361342
0.000372854
0.000384433
0.000395933
0.000407256
0.000418349
0.000429174
0.000439736
0.000450019
0.000460035
0.000469755
0.000479169
0.000488203
0.000496801
0.000504846
0.000512228
0.000518794
0.000524367
0.000528762
0.000531764
0.000533157
0.000532844
0.000531072
0.000527366
0.000521309
0.000512826
0.000502019
0.000489184
0.00047481
0.000459482
0.000443745
0.000428648
0.000415165
0.000390775
0.000347478
0.000311918
0.000303369
0.000309092
0.000313507
0.000314521
0.000314632
0.000331957
0.000334697
0.00033973
0.000346682
0.000355128
0.0003647
0.000375053
0.000385895
0.000396983
0.000408129
0.000419192
0.000430079
0.000440734
0.000451116
0.000461223
0.000471025
0.000480527
0.000489679
0.000498462
0.000506778
0.000514566
0.000521678
0.00052799
0.000533325
0.000537477
0.00054025
0.000541412
0.000540758
0.000538169
0.00053378
0.000527382
0.000518909
0.000508601
0.00049691
0.000484436
0.000471847
0.000459663
0.000447931
0.00043716
0.000428648
0.000411085
0.000368328
0.000322853
0.000306164
0.000310852
0.000316495
0.000318115
0.000318518
0.000354843
0.000357463
0.000362287
0.000368945
0.000377021
0.000386168
0.000396049
0.000406391
0.000416961
0.000427583
0.000438123
0.000448491
0.000458633
0.000468496
0.000478076
0.000487324
0.000496234
0.000504733
0.000512791
0.000520278
0.000527123
0.000533142
0.000538192
0.000542069
0.000544538
0.000545407
0.000544454
0.000541527
0.000536571
0.000529736
0.000521131
0.000511065
0.000500082
0.000488879
0.0004782
0.000468716
0.000460794
0.00045397
0.000447931
0.000443745
0.000429538
0.000386347
0.000333475
0.000309433
0.000312601
0.000319386
0.000321703
0.000322391
0.000373249
0.000375748
0.000380333
0.000386656
0.000394314
0.000402977
0.000412327
0.000422103
0.00043209
0.000442122
0.000452073
0.000461859
0.000471422
0.0004807
0.000489684
0.0004983
0.000506534
0.000514279
0.000521496
0.000528008
0.000533741
0.000538459
0.000542012
0.000544172
0.000544695
0.000543439
0.000540218
0.000534983
0.000527829
0.000519084
0.000509147
0.000498618
0.000488263
0.000478894
0.000471229
0.000465758
0.000462531
0.000460794
0.000459663
0.000459482
0.00044747
0.000402797
0.000343538
0.000312791
0.000314025
0.000321749
0.000324761
0.000325677
0.00038771
0.000390076
0.000394403
0.000400362
0.000407568
0.000415707
0.000424478
0.000433641
0.000442993
0.000452383
0.000461692
0.00047084
0.000479768
0.000488398
0.000496717
0.00050462
0.000512084
0.000518957
0.000525193
0.000530555
0.000534977
0.000538167
0.000539999
0.000540239
0.000538653
0.000535252
0.000529881
0.000522608
0.0005137
0.000503746
0.000493428
0.000483573
0.000475063
0.000468689
0.000464999
0.000464145
0.000465758
0.000468716
0.000471847
0.00047481
0.000464129
0.000417761
0.000352865
0.000315853
0.000314809
0.000323221
0.000326877
0.000327946
0.000398978
0.000401199
0.000405246
0.000410814
0.000417531
0.000425105
0.000433253
0.000441754
0.000450421
0.000459118
0.000467733
0.000476189
0.000484424
0.000492342
0.000499923
0.000507022
0.000513606
0.000519465
0.000524556
0.000528565
0.000531486
0.000532941
0.00053293
0.000531204
0.000527512
0.000522146
0.000515038
0.000506358
0.000496461
0.000486173
0.00047644
0.000468319
0.000462694
0.000460186
0.000461036
0.000464999
0.000471229
0.0004782
0.000484436
0.000489184
0.000479026
0.000431239
0.000361373
0.000318324
0.000314716
0.000323566
0.000327785
0.000328938
0.000407574
0.000409637
0.000413383
0.000418528
0.000424719
0.000431684
0.000439162
0.000446952
0.000454886
0.000462841
0.000470713
0.000478427
0.000485916
0.000493054
0.000499819
0.000506011
0.000511587
0.000516273
0.000520057
0.000522517
0.000523843
0.000523446
0.00052151
0.000517843
0.000512082
0.000504479
0.000495909
0.00048689
0.000477686
0.000468633
0.000460522
0.000454919
0.000452856
0.000454675
0.000460186
0.000468689
0.000478894
0.000488879
0.00049691
0.000502019
0.000491788
0.000443159
0.000368938
0.000319973
0.000313595
0.000322659
0.000327357
0.000328546
0.00041385
0.000415744
0.000419165
0.000423856
0.000429482
0.000435796
0.000442559
0.000449593
0.000456751
0.000463923
0.00047101
0.00047794
0.000484632
0.000490922
0.000496787
0.000501958
0.000506411
0.000509786
0.0005122
0.000512969
0.000512567
0.000510065
0.000505079
0.000498225
0.000489931
0.000480164
0.000470562
0.000462214
0.000455742
0.000450961
0.000447191
0.000445044
0.000446758
0.000452856
0.000462694
0.000475063
0.000488263
0.000500082
0.000508601
0.000512826
0.000502194
0.000453404
0.000375381
0.000320627
0.000311373
0.000320469
0.000325569
0.000326763
0.000418061
0.000419774
0.000422846
0.000427053
0.000432077
0.0004377
0.000443708
0.000449949
0.000456295
0.000462653
0.000468924
0.000475035
0.000480883
0.000486253
0.000491154
0.00049523
0.000498537
0.000500495
0.000501393
0.000500072
0.000496006
0.000489844
0.000480797
0.000470121
0.000459333
0.000449008
0.000440041
0.000433381
0.000429972
0.000430519
0.00043452
0.000439083
0.000445044
0.000454919
0.000468319
0.000483573
0.000498618
0.000511065
0.000518909
0.000521309
0.000510175
0.00046185
0.000380511
0.000320173
0.000308036
0.00031703
0.000322467
0.000323651
0.000420399
0.000421918
0.000424617
0.000428309
0.000432697
0.000437593
0.000442813
0.000448231
0.000453742
0.000459267
0.000464698
0.000469958
0.000474935
0.000479346
0.000483325
0.00048625
0.000488241
0.000488059
0.000485176
0.000479951
0.000470732
0.000460001
0.000448338
0.000436565
0.000425709
0.000416693
0.000409943
0.000406184
0.000406175
0.000410693
0.000420838
0.00043452
0.000447191
0.000460522
0.00047644
0.000493428
0.000509147
0.000521131
0.000527382
0.000527366
0.00051576
0.000468368
0.000384153
0.00031855
0.00030362
0.000312419
0.000318138
0.000319305
0.000421006
0.000422319
0.000424623
0.000427771
0.000431492
0.000435632
0.000440039
0.000444616
0.00044928
0.000453957
0.000458522
0.000462938
0.000467118
0.000470585
0.000473501
0.000474385
0.00047263
0.000468168
0.000459609
0.000449328
0.000437394
0.00042501
0.000413304
0.000402741
0.000393835
0.000387237
0.00038349
0.000383364
0.000387563
0.000396563
0.000410693
0.000430519
0.000450961
0.000468633
0.000486173
0.000503746
0.000519084
0.000529736
0.00053378
0.000531072
0.000519
0.000472789
0.000386173
0.000315764
0.000298199
0.000306742
0.0003127
0.000313853
0.000419978
0.000421074
0.000422962
0.000425544
0.000428573
0.000431936
0.000435517
0.000439247
0.000443056
0.000446874
0.000450588
0.000454296
0.000457657
0.000459579
0.000458817
0.000455198
0.000447502
0.000437812
0.000426152
0.000413707
0.000401684
0.000390197
0.000379904
0.000371223
0.000364747
0.000361138
0.000360999
0.000365029
0.000373799
0.000387563
0.000406175
0.000429972
0.000455742
0.000477686
0.000496461
0.0005137
0.000527829
0.000536571
0.000538169
0.000532844
0.000519863
0.000474484
0.000386351
0.000312
0.000291948
0.000300161
0.000306315
0.000307464
0.000417371
0.000418242
0.000419698
0.000421698
0.000424021
0.0004266
0.000429353
0.000432232
0.000435186
0.000438203
0.000441191
0.000444022
0.00044441
0.000442007
0.000435011
0.000425888
0.000414666
0.000402509
0.000390386
0.000378402
0.00036724
0.000357174
0.000348848
0.000342697
0.000339283
0.000339237
0.000343158
0.000351628
0.000365029
0.000383364
0.000406184
0.000433382
0.000462214
0.00048689
0.000506358
0.000522608
0.000534983
0.000541527
0.000540758
0.000533157
0.000518446
0.000472971
0.000384472
0.000307401
0.000285013
0.000292813
0.000299117
0.000300275
0.000413216
0.000413857
0.000414874
0.000416286
0.000417903
0.000419702
0.000421625
0.000423654
0.000425835
0.000428185
0.000430049
0.00042885
0.000423205
0.000414556
0.00040356
0.000391582
0.000379411
0.000367122
0.000355311
0.000344286
0.000334677
0.000326759
0.000321053
0.000317996
0.000318124
0.000322019
0.000330221
0.000343158
0.000360999
0.00038349
0.000409944
0.000440041
0.000470563
0.000495909
0.000515039
0.000529881
0.000540218
0.000544454
0.000541412
0.000531764
0.000515379
0.000469612
0.000380914
0.000301635
0.000277193
0.0002846
0.000291033
0.0002922
0.000407533
0.000407946
0.000408525
0.00040936
0.000410284
0.000411307
0.000412404
0.000413661
0.000415187
0.000415949
0.000413239
0.000404906
0.000394047
0.000381762
0.000369314
0.000356613
0.000344175
0.000332319
0.00032163
0.000312375
0.000305015
0.000299812
0.000297194
0.000297601
0.000301543
0.000309539
0.00032202
0.000339237
0.000361138
0.000387237
0.000416693
0.000449008
0.000480164
0.000504479
0.000522146
0.000535252
0.000543439
0.000545407
0.00054025
0.000528762
0.000510869
0.00046479
0.000375917
0.000294746
0.00026851
0.00027555
0.000282082
0.000283251
0.000400353
0.000400547
0.000400704
0.000400986
0.000401232
0.00040149
0.000401839
0.000402461
0.00040222
0.000397607
0.000387395
0.000374482
0.000361182
0.000347694
0.000334412
0.000321574
0.00030976
0.000299253
0.000290469
0.000283601
0.000278963
0.000276818
0.000277558
0.000281621
0.000289473
0.000301543
0.000318124
0.000339283
0.000364747
0.000393835
0.000425709
0.000459333
0.000489931
0.000512082
0.000527512
0.000538653
0.000544695
0.000544538
0.000537477
0.000524367
0.000505135
0.000458728
0.000369646
0.000286818
0.000259013
0.000265716
0.000272323
0.000273488
0.000391748
0.000391739
0.000391497
0.000391254
0.000390849
0.000390428
0.000390183
0.000389084
0.000383043
0.00037087
0.000356158
0.000341565
0.00032702
0.000312861
0.000299659
0.000287697
0.000277409
0.000268972
0.000262619
0.000258491
0.000256832
0.000257924
0.000262144
0.000269908
0.000281621
0.000297601
0.000317996
0.000342697
0.000371223
0.000402741
0.000436565
0.000470121
0.000498225
0.000517843
0.000531204
0.000540239
0.000544172
0.000542069
0.000533325
0.000518794
0.000498381
0.000451617
0.000362267
0.000277966
0.000248788
0.000255184
0.00026185
0.000263009
0.000381854
0.000381658
0.000381032
0.000380317
0.000379373
0.000378415
0.000376546
0.000369459
0.000355587
0.00033924
0.000323095
0.000307341
0.000292311
0.000278501
0.000266388
0.000256158
0.000248039
0.000242098
0.000238454
0.000237233
0.000238664
0.000243047
0.000250749
0.000262144
0.000277558
0.000297194
0.000321053
0.000348848
0.000379904
0.000413305
0.000448338
0.000480797
0.000505079
0.00052151
0.00053293
0.000539999
0.000542011
0.000538192
0.00052799
0.000512227
0.000490774
0.000443627
0.000353945
0.000268321
0.000237936
0.000244054
0.00025077
0.000251925
0.000370882
0.000370521
0.00036953
0.000368511
0.000367105
0.000364437
0.000356529
0.000341274
0.000323364
0.000305775
0.000288717
0.000272753
0.000258338
0.000245886
0.000235667
0.000227736
0.000222146
0.000218897
0.000218064
0.000219788
0.000224313
0.000231951
0.000243047
0.000257924
0.000276818
0.000299812
0.000326759
0.000357174
0.000390197
0.000425011
0.000460001
0.000489844
0.000510065
0.000523446
0.000532941
0.000538167
0.000538459
0.000533142
0.000521678
0.000504846
0.000482474
0.000434921
0.000344844
0.000258015
0.000226563
0.000232431
0.000239194
0.000240348
0.000359176
0.000358726
0.000357433
0.000356049
0.000352399
0.00034364
0.000327414
0.000308218
0.000289363
0.000271136
0.000254177
0.000239116
0.000226306
0.000215966
0.000208162
0.000202822
0.000199899
0.000199377
0.000201339
0.000205964
0.000213518
0.000224313
0.000238664
0.000256833
0.000278963
0.000305015
0.000334677
0.000367241
0.000401684
0.000437395
0.000470732
0.000496006
0.000512567
0.000523843
0.000531486
0.000534977
0.000533741
0.000527123
0.000514565
0.000496801
0.000473616
0.000425642
0.000335122
0.00024718
0.000214772
0.000220416
0.000227226
0.000228385
0.000347105
0.000346528
0.000344664
0.000339789
0.000329857
0.000313172
0.000293232
0.000273468
0.000254284
0.000236471
0.000220744
0.000207559
0.000197081
0.00018932
0.000184175
0.000181504
0.000181233
0.000183374
0.000188052
0.000195488
0.000205965
0.000219788
0.000237233
0.000258491
0.000283601
0.000312375
0.000344287
0.000378402
0.000413707
0.000449328
0.000479951
0.000500072
0.000512969
0.000522517
0.000528565
0.000530555
0.000528008
0.000520278
0.000506778
0.000488203
0.000464299
0.000415906
0.000324916
0.000235934
0.000202651
0.000208093
0.000214952
0.000216122
0.000332864
0.000330499
0.000325393
0.000313831
0.000297372
0.000277549
0.000257451
0.000237682
0.000219246
0.000203
0.000189469
0.000178868
0.000171154
0.000166169
0.00016372
0.000163656
0.000165935
0.000170627
0.000177914
0.000188052
0.00020134
0.000218064
0.000238454
0.000262619
0.000290469
0.00032163
0.000355311
0.000390387
0.000426152
0.000459609
0.000485176
0.000501393
0.0005122
0.000520057
0.000524556
0.000525193
0.000521496
0.000512791
0.000498462
0.000479168
0.000454621
0.000405819
0.000314344
0.000224377
0.000190284
0.000195541
0.000202454
0.000203641
0.000309251
0.000303857
0.000293737
0.000278454
0.000260019
0.000240396
0.000220607
0.000201933
0.000185421
0.000171715
0.000161073
0.000153465
0.000148679
0.000146464
0.000146613
0.000149022
0.000153715
0.000160838
0.000170627
0.000183374
0.000199377
0.000218898
0.000242098
0.000268972
0.000299254
0.000332319
0.000367122
0.000402509
0.000437813
0.000468168
0.000488059
0.000500495
0.000509786
0.000516273
0.000519465
0.000518957
0.000514279
0.000504733
0.000489679
0.000469755
0.000444637
0.000395432
0.000303455
0.000212568
0.000177734
0.000182823
0.000189791
0.000190999
0.00027317
0.000266702
0.000254749
0.000239186
0.0002211
0.000202061
0.000183717
0.000167347
0.000153751
0.000143276
0.000135914
0.00013144
0.000129547
0.000129971
0.000132555
0.00013728
0.00014426
0.000153715
0.000165935
0.000181233
0.0001999
0.000222146
0.000248039
0.000277409
0.00030976
0.000344175
0.000379411
0.000414666
0.000447502
0.00047263
0.000488241
0.000498537
0.000506411
0.000511587
0.000513606
0.000512084
0.000506534
0.000496234
0.000480526
0.000460034
0.000434401
0.000384793
0.000292307
0.000200563
0.000165052
0.000169987
0.000177011
0.000178243
0.000231472
0.000225052
0.000213386
0.000198038
0.00018076
0.000163523
0.000147879
0.000134828
0.000124849
0.000117991
0.00011403
0.000112629
0.00011347
0.000116345
0.000121193
0.000128101
0.00013728
0.000149022
0.000163656
0.000181504
0.000202822
0.000227736
0.000256159
0.000287697
0.000321574
0.000356614
0.000391583
0.000425889
0.000455199
0.000474385
0.00048625
0.00049523
0.000501958
0.000506011
0.000507022
0.00050462
0.0004983
0.000487323
0.000471025
0.000450018
0.000423914
0.000373905
0.000280911
0.000188381
0.000152259
0.000157056
0.000164133
0.00016539
0.000187084
0.000180579
0.000169291
0.000155103
0.000140009
0.000125881
0.000113981
0.000104967
9.89883e-05
9.58538e-05
9.52097e-05
9.66973e-05
0.00010006
0.000105197
0.000112174
0.000121193
0.000132555
0.000146613
0.00016372
0.000184175
0.000208162
0.000235667
0.000266388
0.00029966
0.000334413
0.000369314
0.000403561
0.000435011
0.000458817
0.000473501
0.000483325
0.000491154
0.000496787
0.000499819
0.000499923
0.000496717
0.000489684
0.000478076
0.000461223
0.000439736
0.00041319
0.000362773
0.000269275
0.000176035
0.000139376
0.000144048
0.000151174
0.000152454
0.000139056
0.000133165
0.000123383
0.000111686
0.000100063
9.0085e-05
8.26454e-05
7.80416e-05
7.61502e-05
7.66252e-05
7.90786e-05
8.32119e-05
8.88881e-05
9.61497e-05
0.000105197
0.000116345
0.000129971
0.000146464
0.000166169
0.00018932
0.000215967
0.000245886
0.000278501
0.000312861
0.000347694
0.000381762
0.000414556
0.000442007
0.000459579
0.000470585
0.000479346
0.000486253
0.000490922
0.000493054
0.000492342
0.000488398
0.0004807
0.000468496
0.000451116
0.000429174
0.00040221
0.000351373
0.000257373
0.000163514
0.0001264
0.000130964
0.000138131
0.000139432
8.92391e-05
8.45973e-05
7.73467e-05
6.92528e-05
6.20525e-05
5.68842e-05
5.42299e-05
5.40704e-05
5.60957e-05
5.99054e-05
6.51661e-05
7.17062e-05
7.95473e-05
8.8888e-05
0.00010006
0.00011347
0.000129547
0.000148679
0.000171154
0.000197081
0.000226306
0.000258338
0.000292311
0.00032702
0.000361182
0.000394048
0.000423205
0.00044441
0.000457657
0.000467118
0.000474935
0.000480883
0.000484632
0.000485916
0.000484424
0.000479768
0.000471422
0.000458633
0.000440734
0.000418349
0.000390977
0.000339696
0.000245193
0.000150812
0.000113339
0.000117814
0.000125011
0.000126327
3.99081e-05
3.70323e-05
3.30576e-05
2.93006e-05
2.70175e-05
2.68456e-05
2.88843e-05
3.28811e-05
3.8442e-05
4.52081e-05
5.29753e-05
6.17428e-05
7.17062e-05
8.32119e-05
9.66973e-05
0.000112629
0.00013144
0.000153465
0.000178868
0.000207559
0.000239117
0.000272753
0.000307342
0.000341565
0.000374482
0.000404907
0.00042885
0.000444022
0.000454296
0.000462938
0.000469958
0.000475035
0.00047794
0.000478427
0.000476189
0.00047084
0.000461859
0.000448491
0.000430079
0.000407256
0.000379483
0.000327726
0.000232716
0.000137921
0.000100196
0.000104602
0.000111819
0.000113142
-6.21764e-06
-7.03001e-06
-7.40081e-06
-6.63661e-06
-4.08829e-06
3.95063e-07
6.61057e-06
1.41798e-05
2.27296e-05
3.2027e-05
4.20469e-05
5.29752e-05
6.51661e-05
7.90785e-05
9.52097e-05
0.00011403
0.000135914
0.000161073
0.000189469
0.000220744
0.000254177
0.000288717
0.000323096
0.000356159
0.000387395
0.000413239
0.000430049
0.000441191
0.000450588
0.000458522
0.000464698
0.000468924
0.00047101
0.000470713
0.000467733
0.000461692
0.000452073
0.000438123
0.000419192
0.000395933
0.000367758
0.000315485
0.000219956
0.000124863
8.7002e-05
9.13633e-05
9.85849e-05
9.99083e-05
-4.60537e-05
-4.48449e-05
-4.18508e-05
-3.70494e-05
-3.0403e-05
-2.21572e-05
-1.26953e-05
-2.39848e-06
8.48234e-06
1.99008e-05
3.2027e-05
4.52081e-05
5.99053e-05
7.66251e-05
9.58537e-05
0.000117991
0.000143276
0.000171715
0.000203
0.000236471
0.000271136
0.000305775
0.00033924
0.00037087
0.000397607
0.000415949
0.000428185
0.000438204
0.000446874
0.000453957
0.000459267
0.000462653
0.000463923
0.000462842
0.000459118
0.000452383
0.000442122
0.000427583
0.000408129
0.000384433
0.000355856
0.000303026
0.000206966
0.000111689
7.38112e-05
7.81526e-05
8.53658e-05
8.66811e-05
-7.64908e-05
-7.37011e-05
-6.82139e-05
-6.05725e-05
-5.12223e-05
-4.06423e-05
-2.9236e-05
-1.72525e-05
-4.73469e-06
8.48232e-06
2.27295e-05
3.84419e-05
5.60956e-05
7.61501e-05
9.89883e-05
0.000124849
0.000153751
0.000185421
0.000219246
0.000254284
0.000289363
0.000323364
0.000355587
0.000383044
0.00040222
0.000415187
0.000425835
0.000435186
0.000443056
0.00044928
0.000453742
0.000456295
0.000456751
0.000454886
0.000450421
0.000442993
0.00043209
0.000416961
0.000396983
0.000372854
0.000343878
0.00029045
0.000193847
9.84974e-05
6.07186e-05
6.50649e-05
7.2257e-05
7.35565e-05
-9.48479e-05
-9.13199e-05
-8.48268e-05
-7.6214e-05
-6.61497e-05
-5.51112e-05
-4.33272e-05
-3.07804e-05
-1.72525e-05
-2.39852e-06
1.41797e-05
3.28811e-05
5.40703e-05
7.80415e-05
0.000104967
0.000134828
0.000167347
0.000201932
0.000237682
0.000273468
0.000308218
0.000341275
0.00036946
0.000389084
0.000402461
0.000413661
0.000423654
0.000432232
0.000439247
0.000444616
0.000448231
0.000449949
0.000449594
0.000446952
0.000441754
0.000433641
0.000422104
0.000406391
0.000385896
0.000361343
0.000331973
0.000277917
0.000180763
8.54424e-05
4.78662e-05
5.224e-05
5.94001e-05
6.06775e-05
-9.94579e-05
-9.63709e-05
-9.0855e-05
-8.36568e-05
-7.5285e-05
-6.59175e-05
-5.53958e-05
-4.33272e-05
-2.92361e-05
-1.26954e-05
6.61049e-06
2.88842e-05
5.42298e-05
8.26453e-05
0.000113981
0.000147879
0.000183717
0.000220607
0.000257451
0.000293232
0.000327414
0.000356529
0.000376546
0.000390183
0.000401839
0.000412404
0.000421625
0.000429353
0.000435517
0.000440039
0.000442813
0.000443708
0.000442559
0.000439162
0.000433253
0.000424478
0.000412327
0.00039605
0.000375053
0.000350094
0.000320346
0.000265645
0.000167943
7.27356e-05
3.54458e-05
3.98662e-05
4.69862e-05
4.82368e-05
-9.02183e-05
-8.89499e-05
-8.66586e-05
-8.34928e-05
-7.933e-05
-7.37179e-05
-6.59175e-05
-5.51112e-05
-4.06424e-05
-2.21573e-05
3.94962e-07
2.68455e-05
5.68841e-05
9.00848e-05
0.000125881
0.000163523
0.000202061
0.000240396
0.000277549
0.000313172
0.00034364
0.000364437
0.000378415
0.000390428
0.00040149
0.000411307
0.000419702
0.0004266
0.000431936
0.000435632
0.000437593
0.0004377
0.000435796
0.000431684
0.000425105
0.000415707
0.000402977
0.000386168
0.000364701
0.000339363
0.00030926
0.00025392
0.000155685
6.06537e-05
2.37073e-05
2.81875e-05
3.52628e-05
3.64841e-05
-6.89277e-05
-7.08356e-05
-7.39289e-05
-7.72322e-05
-7.94967e-05
-7.933e-05
-7.5285e-05
-6.61497e-05
-5.12224e-05
-3.04031e-05
-4.08842e-06
2.70174e-05
6.20523e-05
0.000100062
0.000140008
0.00018076
0.0002211
0.000260019
0.000297372
0.000329856
0.000352399
0.000367106
0.000379373
0.000390849
0.000401232
0.000410284
0.000417904
0.000424021
0.000428573
0.000431492
0.000432697
0.000432077
0.000429482
0.000424719
0.000417531
0.000407568
0.000394314
0.000377022
0.000355128
0.000329451
0.000299025
0.000243076
0.000144343
4.95253e-05
1.29475e-05
1.74937e-05
2.45234e-05
2.57156e-05
-3.93396e-05
-4.54601e-05
-5.55464e-05
-6.70657e-05
-7.72322e-05
-8.34927e-05
-8.36568e-05
-7.6214e-05
-6.05725e-05
-3.70495e-05
-6.63676e-06
2.93004e-05
6.92527e-05
0.000111686
0.000155103
0.000198038
0.000239186
0.000278453
0.000313831
0.000339789
0.000356049
0.000368511
0.000380317
0.000391254
0.000400986
0.000409361
0.000416286
0.000421698
0.000425544
0.000427772
0.000428309
0.000427053
0.000423857
0.000418528
0.000410814
0.000400362
0.000386656
0.000368945
0.000346683
0.000320715
0.00029001
0.000233512
0.000134336
3.97418e-05
3.52218e-06
8.13304e-06
1.51202e-05
1.62859e-05
-6.96267e-06
-1.76761e-05
-3.5292e-05
-5.55464e-05
-7.39289e-05
-8.66585e-05
-9.0855e-05
-8.48268e-05
-6.8214e-05
-4.18509e-05
-7.40098e-06
3.30574e-05
7.73466e-05
0.000123383
0.000169291
0.000213386
0.000254749
0.000293737
0.000325393
0.000344665
0.000357433
0.00036953
0.000381032
0.000391497
0.000400704
0.000408525
0.000414874
0.000419698
0.000422962
0.000424623
0.000424617
0.000422846
0.000419165
0.000413383
0.000405246
0.000394403
0.000380333
0.000362287
0.00033973
0.000313533
0.000282603
0.000225645
0.000126106
3.17186e-05
-4.189e-06
4.77245e-07
7.42878e-06
8.57317e-06
2.11902e-05
6.46614e-06
-1.76761e-05
-4.54601e-05
-7.08355e-05
-8.89498e-05
-9.63708e-05
-9.13199e-05
-7.37012e-05
-4.4845e-05
-7.03018e-06
3.70321e-05
8.45971e-05
0.000133165
0.000180579
0.000225052
0.000266702
0.000303857
0.000330499
0.000346528
0.000358726
0.000370521
0.000381658
0.00039174
0.000400547
0.000407946
0.000413857
0.000418242
0.000421074
0.000422319
0.000421918
0.000419774
0.000415744
0.000409637
0.000401199
0.000390076
0.000375748
0.000357463
0.000334697
0.000308339
0.000277248
0.000219951
0.000120153
2.59279e-05
-9.74816e-06
-5.04356e-06
1.88252e-06
3.01291e-06
3.82791e-05
2.11902e-05
-6.96264e-06
-3.93396e-05
-6.89276e-05
-9.02182e-05
-9.94579e-05
-9.4848e-05
-7.64909e-05
-4.60539e-05
-6.21781e-06
3.99079e-05
8.92389e-05
0.000139056
0.000187084
0.000231472
0.00027317
0.000309251
0.000332864
0.000347105
0.000359176
0.000370882
0.000381854
0.000391748
0.000400353
0.000407533
0.000413216
0.000417371
0.000419978
0.000421006
0.000420399
0.000418061
0.00041385
0.000407574
0.000398978
0.00038771
0.000373249
0.000354843
0.000331957
0.000305486
0.000274353
0.000216952
0.00011695
2.27258e-05
-1.27863e-05
-8.00165e-06
-1.09634e-06
-2.70283e-10
)
;

boundaryField
{
    inlet
    {
        type            cyclic;
    }
    outlet
    {
        type            cyclic;
    }
    walls
    {
        type            zeroGradient;
    }
    symPlanes
    {
        type            symmetry;
    }
}


// ************************************************************************* //
