/*--------------------------------*- C++ -*----------------------------------*\
| =========                 |                                                 |
| \\      /  F ield         | OpenFOAM: The Open Source CFD Toolbox           |
|  \\    /   O peration     | Version:  2412                                  |
|   \\  /    A nd           | Website:  www.openfoam.com                      |
|    \\/     M anipulation  |                                                 |
\*---------------------------------------------------------------------------*/
FoamFile
{
    version     2.0;
    format      ascii;
    arch        "LSB;label=32;scalar=64";
    class       surfaceScalarField;
    location    "1830";
    object      phi;
}
// * * * * * * * * * * * * * * * * * * * * * * * * * * * * * * * * * * * * * //

dimensions      [0 3 -1 0 0 0 0];

oriented        oriented;

internalField   nonuniform List<scalar> 
4512
(
-1.10797e-08
1.10892e-08
-2.15262e-08
1.04464e-08
-3.12564e-08
9.73028e-09
-4.01822e-08
8.9255e-09
-4.82672e-08
8.08499e-09
-5.54991e-08
7.23192e-09
-6.18996e-08
6.40052e-09
-6.75131e-08
5.61323e-09
-7.24069e-08
4.89384e-09
-7.66631e-08
4.25611e-09
-8.03711e-08
3.7081e-09
-8.36194e-08
3.24814e-09
-8.64859e-08
2.86659e-09
-8.90356e-08
2.54974e-09
-9.13008e-08
2.26529e-09
-9.3296e-08
1.99509e-09
-9.50008e-08
1.70496e-09
-9.63785e-08
1.37763e-09
-9.736e-08
9.81579e-10
-9.7869e-08
5.08886e-10
-9.78171e-08
-5.18292e-11
-9.71222e-08
-6.94971e-10
-9.56976e-08
-1.42456e-09
-9.34764e-08
-2.22124e-09
-9.04235e-08
-3.05292e-09
-8.65507e-08
-3.87279e-09
-8.19358e-08
-4.61489e-09
-7.66947e-08
-5.24118e-09
-7.08786e-08
-5.81607e-09
-6.41818e-08
-6.69684e-09
-5.64571e-08
-7.72474e-09
-4.77564e-08
-8.70074e-09
-3.82117e-08
-9.54465e-09
-2.80571e-08
-1.01546e-08
-1.76919e-08
-1.03653e-08
-7.73271e-09
-9.95922e-09
9.89011e-10
-8.72173e-09
7.53313e-09
-6.54413e-09
1.11047e-08
-3.57159e-09
1.14242e-08
-3.19511e-10
9.14433e-09
2.27986e-09
5.82312e-09
3.32119e-09
2.94172e-09
2.8814e-09
1.1277e-09
1.81401e-09
2.82043e-10
8.45644e-10
2.65903e-11
2.55443e-10
-5.1675e-16
2.65822e-11
-2.69933e-15
-3.27427e-08
4.38314e-08
-6.36434e-08
4.13464e-08
-9.24229e-08
3.85092e-08
-1.18856e-07
3.53581e-08
-1.42832e-07
3.20596e-08
-1.64315e-07
2.87151e-08
-1.83361e-07
2.54455e-08
-2.00089e-07
2.23408e-08
-2.14683e-07
1.9487e-08
-2.27366e-07
1.69388e-08
-2.38385e-07
1.47263e-08
-2.47981e-07
1.28442e-08
-2.56374e-07
1.12588e-08
-2.63739e-07
9.91496e-09
-2.70175e-07
8.70152e-09
-2.75723e-07
7.54251e-09
-2.80339e-07
6.32064e-09
-2.83925e-07
4.96338e-09
-2.86309e-07
3.36589e-09
-2.87292e-07
1.49117e-09
-2.86647e-07
-6.97056e-10
-2.84158e-07
-3.18353e-09
-2.79613e-07
-5.97007e-09
-2.72848e-07
-8.98646e-09
-2.63784e-07
-1.2117e-08
-2.52459e-07
-1.51977e-08
-2.39063e-07
-1.80106e-08
-2.23877e-07
-2.04272e-08
-2.06995e-07
-2.26989e-08
-1.87836e-07
-2.5856e-08
-1.66116e-07
-2.94443e-08
-1.41997e-07
-3.28195e-08
-1.15853e-07
-3.56891e-08
-8.83089e-08
-3.76987e-08
-6.03843e-08
-3.82899e-08
-3.35989e-08
-3.67446e-08
-9.95433e-09
-3.23664e-08
8.31615e-09
-2.48146e-08
1.93151e-08
-1.45705e-08
2.23278e-08
-3.33226e-09
1.8788e-08
5.81962e-09
1.22437e-08
9.86549e-09
6.20082e-09
8.92421e-09
2.29965e-09
5.71515e-09
4.82483e-10
2.66279e-09
-2.65817e-11
7.64487e-10
-2.65883e-11
2.65732e-11
-2.65936e-11
-5.44061e-08
9.82377e-08
-1.05755e-07
9.2695e-08
-1.53602e-07
8.63566e-08
-1.97599e-07
7.93556e-08
-2.37559e-07
7.20193e-08
-2.73425e-07
6.45815e-08
-3.05272e-07
5.72924e-08
-3.33282e-07
5.03505e-08
-3.57732e-07
4.39369e-08
-3.78965e-07
3.8172e-08
-3.9736e-07
3.31214e-08
-4.13292e-07
2.87762e-08
-4.27102e-07
2.50689e-08
-4.39066e-07
2.18798e-08
-4.49349e-07
1.89845e-08
-4.58021e-07
1.62145e-08
-4.65033e-07
1.33328e-08
-4.70249e-07
1.01792e-08
-4.7343e-07
6.54667e-09
-4.74288e-07
2.34964e-09
-4.725e-07
-2.48523e-09
-4.67755e-07
-7.92836e-09
-4.59758e-07
-1.39678e-08
-4.48287e-07
-2.04572e-08
-4.33241e-07
-2.71631e-08
-4.14674e-07
-3.37644e-08
-3.92846e-07
-3.98392e-08
-3.68163e-07
-4.51097e-08
-3.40834e-07
-5.0028e-08
-3.10198e-07
-5.64924e-08
-2.75979e-07
-6.36635e-08
-2.38477e-07
-7.03208e-08
-1.98245e-07
-7.59214e-08
-1.56143e-07
-7.9801e-08
-1.13529e-07
-8.09037e-08
-7.24093e-08
-7.78644e-08
-3.5448e-08
-6.93278e-08
-5.72222e-09
-5.45404e-08
1.39176e-08
-3.42104e-08
2.19392e-08
-1.13538e-08
1.97903e-08
7.96849e-09
1.24677e-08
1.7188e-08
5.30651e-09
1.60854e-08
8.95298e-10
1.01263e-08
-7.64489e-10
4.32256e-09
-7.64499e-10
7.64477e-10
-2.5545e-10
-4.82491e-10
-2.82046e-10
-7.50868e-08
1.73324e-07
-1.45924e-07
1.63531e-07
-2.11995e-07
1.52428e-07
-2.72829e-07
1.40189e-07
-3.28171e-07
1.27361e-07
-3.7794e-07
1.14351e-07
-4.22219e-07
1.01571e-07
-4.61227e-07
8.93586e-08
-4.95307e-07
7.8016e-08
-5.24885e-07
6.77497e-08
-5.50436e-07
5.86728e-08
-5.72436e-07
5.07759e-08
-5.91321e-07
4.39535e-08
-6.0745e-07
3.80091e-08
-6.21048e-07
3.25824e-08
-6.32226e-07
2.73915e-08
-6.40949e-07
2.20557e-08
-6.47078e-07
1.63084e-08
-6.50356e-07
9.82425e-09
-6.50463e-07
2.45726e-09
-6.47028e-07
-5.9202e-09
-6.39698e-07
-1.52592e-08
-6.2815e-07
-2.55158e-08
-6.12154e-07
-3.64533e-08
-5.91605e-07
-4.77122e-08
-5.66553e-07
-5.88162e-08
-5.37262e-07
-6.913e-08
-5.04218e-07
-7.81539e-08
-4.6789e-07
-8.63561e-08
-4.27699e-07
-9.66836e-08
-3.83541e-07
-1.07821e-07
-3.35883e-07
-1.17979e-07
-2.85324e-07
-1.26481e-07
-2.32697e-07
-1.32427e-07
-1.79285e-07
-1.34316e-07
-1.27002e-07
-1.30148e-07
-7.85242e-08
-1.17805e-07
-3.72689e-08
-9.57957e-08
-7.03919e-09
-6.44402e-08
8.97296e-09
-2.7366e-08
1.10033e-08
5.9381e-09
5.13718e-09
2.30541e-08
-1.18408e-09
2.24066e-08
-4.32256e-09
1.32648e-08
-4.32257e-09
4.32255e-09
-2.6628e-09
-8.95309e-10
-8.45652e-10
-2.29966e-09
-1.1277e-09
-9.31816e-08
2.66506e-07
-1.81111e-07
2.51462e-07
-2.63198e-07
2.34515e-07
-3.38884e-07
2.15875e-07
-4.07868e-07
1.96345e-07
-4.70044e-07
1.76527e-07
-5.25483e-07
1.5701e-07
-5.74415e-07
1.3829e-07
-6.17205e-07
1.20807e-07
-6.54322e-07
1.04867e-07
-6.8629e-07
9.06419e-08
-7.13644e-07
7.81293e-08
-7.36879e-07
6.71891e-08
-7.56417e-07
5.75468e-08
-7.72534e-07
4.86994e-08
-7.85388e-07
4.02461e-08
-7.94986e-07
3.16535e-08
-8.01223e-07
2.25453e-08
-8.03874e-07
1.2476e-08
-8.02657e-07
1.23968e-09
-7.97204e-07
-1.13731e-08
-7.87175e-07
-2.52885e-08
-7.72288e-07
-4.04019e-08
-7.52356e-07
-5.63859e-08
-7.27298e-07
-7.27696e-08
-6.9715e-07
-8.89644e-08
-6.62102e-07
-1.04178e-07
-6.22583e-07
-1.17673e-07
-5.79405e-07
-1.29534e-07
-5.32455e-07
-1.43633e-07
-4.82092e-07
-1.58185e-07
-4.28949e-07
-1.71122e-07
-3.73528e-07
-1.81902e-07
-3.16374e-07
-1.89581e-07
-2.58218e-07
-1.92472e-07
-2.00132e-07
-1.88234e-07
-1.43788e-07
-1.74149e-07
-9.18601e-08
-1.47724e-07
-4.85368e-08
-1.07763e-07
-1.97039e-08
-5.61989e-08
-8.84225e-09
-4.92361e-09
-1.00369e-08
2.42487e-08
-1.32648e-08
2.56345e-08
-1.32648e-08
1.32648e-08
-1.01264e-08
1.18407e-09
-5.71516e-09
-5.30652e-09
-1.81402e-09
-6.20082e-09
-2.94172e-09
-1.07739e-07
3.74245e-07
-2.09524e-07
3.53247e-07
-3.04583e-07
3.29574e-07
-3.92337e-07
3.03628e-07
-4.72449e-07
2.76457e-07
-5.44777e-07
2.48855e-07
-6.09362e-07
2.21595e-07
-6.66413e-07
1.95341e-07
-7.16286e-07
1.7068e-07
-7.59455e-07
1.48035e-07
-7.96464e-07
1.27651e-07
-8.27874e-07
1.09539e-07
-8.54222e-07
9.35374e-08
-8.75976e-07
7.92999e-08
-8.93459e-07
6.61832e-08
-9.06883e-07
5.367e-08
-9.16304e-07
4.10739e-08
-9.21668e-07
2.79099e-08
-9.22803e-07
1.36108e-08
-9.19481e-07
-2.08284e-09
-9.11369e-07
-1.94851e-08
-8.98177e-07
-3.84804e-08
-8.79683e-07
-5.88965e-08
-8.55754e-07
-8.03141e-08
-8.26362e-07
-1.02162e-07
-7.91538e-07
-1.23788e-07
-7.51362e-07
-1.44354e-07
-7.05934e-07
-1.63101e-07
-6.55668e-07
-1.798e-07
-6.02389e-07
-1.96912e-07
-5.47411e-07
-2.13163e-07
-4.91279e-07
-2.27255e-07
-4.3439e-07
-2.38792e-07
-3.77086e-07
-2.46884e-07
-3.19599e-07
-2.4996e-07
-2.62035e-07
-2.45798e-07
-2.04556e-07
-2.31628e-07
-1.47915e-07
-2.04364e-07
-9.4721e-08
-1.60957e-07
-5.23911e-08
-9.85289e-08
-3.03822e-08
-2.69325e-08
-2.56345e-08
1.9501e-08
-2.56345e-08
2.56345e-08
-2.24066e-08
1.00369e-08
-1.60854e-08
-5.13719e-09
-8.92422e-09
-1.24677e-08
-2.8814e-09
-1.22437e-08
-5.82312e-09
-1.19167e-07
4.93412e-07
-2.3182e-07
4.65901e-07
-3.3706e-07
4.34814e-07
-4.34281e-07
4.00849e-07
-5.23103e-07
3.6528e-07
-6.03337e-07
3.2909e-07
-6.74979e-07
2.93237e-07
-7.382e-07
2.58562e-07
-7.93331e-07
2.25811e-07
-8.40835e-07
1.95539e-07
-8.81259e-07
1.68075e-07
-9.15183e-07
1.43463e-07
-9.43173e-07
1.21528e-07
-9.65736e-07
1.01862e-07
-9.83237e-07
8.36841e-08
-9.95928e-07
6.63619e-08
-1.00391e-06
4.90526e-08
-1.00715e-06
3.11578e-08
-1.00552e-06
1.19749e-08
-9.98784e-07
-8.8176e-09
-9.86642e-07
-3.1627e-08
-9.68823e-07
-5.62995e-08
-9.45093e-07
-8.26263e-08
-9.15308e-07
-1.101e-07
-8.79418e-07
-1.38052e-07
-8.37421e-07
-1.65785e-07
-7.89329e-07
-1.92446e-07
-7.35095e-07
-2.17336e-07
-6.74896e-07
-2.39998e-07
-6.12371e-07
-2.59437e-07
-5.49354e-07
-2.7618e-07
-4.86134e-07
-2.90474e-07
-4.23106e-07
-3.0182e-07
-3.60728e-07
-3.09262e-07
-2.99473e-07
-3.11214e-07
-2.39893e-07
-3.05378e-07
-1.82777e-07
-2.88744e-07
-1.29241e-07
-2.57901e-07
-8.04498e-08
-2.09749e-07
-3.98353e-08
-1.39143e-07
-1.95009e-08
-4.72669e-08
-1.9501e-08
1.95011e-08
-2.42487e-08
3.03823e-08
-2.30541e-08
8.84227e-09
-1.7188e-08
-1.10033e-08
-9.8655e-09
-1.97903e-08
-3.3212e-09
-1.8788e-08
-9.14433e-09
-1.28188e-07
6.216e-07
-2.49324e-07
5.87037e-07
-3.62528e-07
5.48019e-07
-4.67125e-07
5.05447e-07
-5.62679e-07
4.60834e-07
-6.48948e-07
4.15359e-07
-7.25875e-07
3.70164e-07
-7.93587e-07
3.26274e-07
-8.52382e-07
2.84607e-07
-9.02704e-07
2.45861e-07
-9.45099e-07
2.1047e-07
-9.80151e-07
1.78516e-07
-1.00845e-06
1.49825e-07
-1.03052e-06
1.23933e-07
-1.04675e-06
9.9918e-08
-1.05742e-06
7.70344e-08
-1.06265e-06
5.42734e-08
-1.0624e-06
3.0915e-08
-1.05653e-06
6.10327e-09
-1.0448e-06
-2.05528e-08
-1.02688e-06
-4.95466e-08
-1.00248e-06
-8.06998e-08
-9.71303e-07
-1.138e-07
-9.3315e-07
-1.48252e-07
-8.87922e-07
-1.8328e-07
-8.35605e-07
-2.18102e-07
-7.76328e-07
-2.51722e-07
-7.10432e-07
-2.83232e-07
-6.38794e-07
-3.11637e-07
-5.6372e-07
-3.34511e-07
-4.8676e-07
-3.5314e-07
-4.08827e-07
-3.68408e-07
-3.31003e-07
-3.79644e-07
-2.54719e-07
-3.85547e-07
-1.81812e-07
-3.84121e-07
-1.14549e-07
-3.72641e-07
-5.55408e-08
-3.47752e-07
-7.53363e-09
-3.05908e-07
2.68839e-08
-2.44167e-07
4.72672e-08
-1.59527e-07
4.72671e-08
-4.72669e-08
2.69326e-08
3.98356e-08
4.92367e-09
5.23912e-08
-5.93806e-09
1.9704e-08
-7.96848e-09
-8.97292e-09
-5.81962e-09
-2.19392e-08
-2.27986e-09
-2.23278e-08
-1.14242e-08
-1.35253e-07
7.56853e-07
-2.63021e-07
7.14805e-07
-3.82412e-07
6.6741e-07
-4.92689e-07
6.15724e-07
-5.93352e-07
5.61498e-07
-6.841e-07
5.06106e-07
-7.64818e-07
4.50882e-07
-8.35584e-07
3.9704e-07
-8.9666e-07
3.45683e-07
-9.48468e-07
2.9767e-07
-9.91544e-07
2.53545e-07
-1.02647e-06
2.13442e-07
-1.05384e-06
1.77194e-07
-1.07419e-06
1.44282e-07
-1.08791e-06
1.13637e-07
-1.09527e-06
8.43981e-08
-1.09637e-06
5.53776e-08
-1.09119e-06
2.5729e-08
-1.07951e-06
-5.57196e-09
-1.06109e-06
-3.89748e-08
-1.03556e-06
-7.50809e-08
-1.00258e-06
-1.13676e-07
-9.61831e-07
-1.5455e-07
-9.13076e-07
-1.97007e-07
-8.56243e-07
-2.40114e-07
-7.91403e-07
-2.82943e-07
-7.18946e-07
-3.24179e-07
-6.397e-07
-3.62478e-07
-5.5503e-07
-3.96307e-07
-4.65788e-07
-4.23754e-07
-3.73538e-07
-4.45389e-07
-2.80368e-07
-4.61578e-07
-1.88627e-07
-4.71385e-07
-1.0112e-07
-4.73054e-07
-2.10968e-08
-4.64144e-07
4.79551e-08
-4.41693e-07
1.0268e-07
-4.02477e-07
1.4033e-07
-3.43557e-07
1.59527e-07
-2.63364e-07
1.59527e-07
-1.59527e-07
1.39144e-07
-2.68835e-08
9.85291e-08
8.04501e-08
5.6199e-08
9.47212e-08
2.73661e-08
4.85369e-08
1.13539e-08
7.03927e-09
3.33226e-09
-1.39176e-08
3.19506e-10
-1.9315e-08
-1.11047e-08
-1.40714e-07
8.97567e-07
-2.73617e-07
8.47709e-07
-3.97729e-07
7.91522e-07
-5.12257e-07
7.30252e-07
-6.16635e-07
6.65875e-07
-7.10493e-07
5.99965e-07
-7.93658e-07
5.34048e-07
-8.66158e-07
4.6954e-07
-9.28218e-07
4.07744e-07
-9.80236e-07
3.49687e-07
-1.02273e-06
2.96041e-07
-1.05628e-06
2.46989e-07
-1.08146e-06
2.02375e-07
-1.09881e-06
1.61629e-07
-1.10868e-06
1.23517e-07
-1.11135e-06
8.70606e-08
-1.10685e-06
5.08816e-08
-1.09513e-06
1.4008e-08
-1.07594e-06
-2.47622e-08
-1.049e-06
-6.59173e-08
-1.01389e-06
-1.10184e-07
-9.70296e-07
-1.57274e-07
-9.17879e-07
-2.06967e-07
-8.56469e-07
-2.58417e-07
-7.86119e-07
-3.10464e-07
-7.07096e-07
-3.61965e-07
-6.2012e-07
-4.11155e-07
-5.26437e-07
-4.5616e-07
-4.2769e-07
-4.95054e-07
-3.2532e-07
-5.26124e-07
-2.21593e-07
-5.49117e-07
-1.19515e-07
-5.63656e-07
-2.24679e-08
-5.68432e-07
6.58756e-08
-5.61398e-07
1.41742e-07
-5.4001e-07
2.01624e-07
-5.01575e-07
2.42742e-07
-4.43596e-07
2.63364e-07
-3.64179e-07
2.63364e-07
-2.63364e-07
2.44167e-07
-1.40329e-07
2.09749e-07
7.53412e-09
1.60957e-07
1.29242e-07
1.07764e-07
1.47915e-07
6.44402e-08
9.18602e-08
3.42105e-08
3.7269e-08
1.45705e-08
5.72232e-09
3.57159e-09
-8.31609e-09
-7.5331e-09
-1.44844e-07
1.04241e-06
-2.81589e-07
9.84454e-07
-4.09159e-07
9.19092e-07
-5.26687e-07
8.47781e-07
-6.33532e-07
7.7272e-07
-7.29253e-07
6.95687e-07
-8.13617e-07
6.18411e-07
-8.86598e-07
5.42522e-07
-9.48385e-07
4.69531e-07
-9.99349e-07
4.00651e-07
-1.03999e-06
3.36685e-07
-1.07087e-06
2.77864e-07
-1.09254e-06
2.24046e-07
-1.10551e-06
1.746e-07
-1.11011e-06
1.28114e-07
-1.10654e-06
8.34925e-08
-1.09481e-06
3.9152e-08
-1.07481e-06
-5.98961e-09
-1.04626e-06
-5.33159e-08
-1.00886e-06
-1.03314e-07
-9.62208e-07
-1.56839e-07
-9.0603e-07
-2.13452e-07
-8.40104e-07
-2.72892e-07
-7.64445e-07
-3.34076e-07
-6.79391e-07
-3.95517e-07
-5.85555e-07
-4.55802e-07
-4.84126e-07
-5.12583e-07
-3.7691e-07
-5.63376e-07
-2.66172e-07
-6.05792e-07
-1.54346e-07
-6.3795e-07
-4.45679e-08
-6.58895e-07
5.94612e-08
-6.67685e-07
1.53834e-07
-6.62805e-07
2.3467e-07
-6.42234e-07
2.98408e-07
-6.03749e-07
3.42184e-07
-5.45351e-07
3.6418e-07
-4.65592e-07
3.6418e-07
-3.64179e-07
3.43558e-07
-2.42742e-07
3.05908e-07
-1.0268e-07
2.57901e-07
5.55414e-08
2.04365e-07
1.82778e-07
1.47724e-07
2.04556e-07
9.57958e-08
1.43788e-07
5.45405e-08
7.85243e-08
2.48146e-08
3.54481e-08
6.54413e-09
9.95441e-09
-9.88978e-10
-1.47797e-07
1.19021e-06
-2.8723e-07
1.12389e-06
-4.17116e-07
1.04898e-06
-5.36497e-07
9.67162e-07
-6.44645e-07
8.80869e-07
-7.41047e-07
7.92089e-07
-8.25402e-07
7.02766e-07
-8.97635e-07
6.14755e-07
-9.57894e-07
5.29791e-07
-1.00652e-06
4.4928e-07
-1.044e-06
3.7416e-07
-1.07084e-06
3.04706e-07
-1.08758e-06
2.40783e-07
-1.09468e-06
1.81702e-07
-1.09241e-06
1.25846e-07
-1.08093e-06
7.20112e-08
-1.06018e-06
1.84039e-08
-1.03003e-06
-3.6137e-08
-9.90178e-07
-9.31708e-08
-9.40384e-07
-1.53107e-07
-8.80305e-07
-2.16919e-07
-8.09868e-07
-2.83889e-07
-7.29089e-07
-3.53671e-07
-6.38347e-07
-4.24818e-07
-5.38469e-07
-4.95395e-07
-4.30559e-07
-5.63712e-07
-3.16417e-07
-6.26725e-07
-1.9852e-07
-6.81273e-07
-7.98858e-08
-7.24426e-07
3.61781e-08
-7.54014e-07
1.45843e-07
-7.6856e-07
2.45024e-07
-7.66865e-07
3.29763e-07
-7.47544e-07
3.96509e-07
-7.0898e-07
4.42407e-07
-6.49646e-07
4.65592e-07
-5.68536e-07
4.65592e-07
-4.65592e-07
4.43596e-07
-3.42183e-07
4.02478e-07
-2.01623e-07
3.47752e-07
-4.79544e-08
2.88744e-07
1.14549e-07
2.31629e-07
2.39894e-07
1.74149e-07
2.62035e-07
1.17805e-07
2.00132e-07
6.93278e-08
1.27002e-07
3.23664e-08
7.24095e-08
8.72173e-09
3.3599e-08
7.73275e-09
-1.49644e-07
1.33985e-06
-2.9068e-07
1.26492e-06
-4.21794e-07
1.18009e-06
-5.41921e-07
1.08729e-06
-6.5024e-07
9.89188e-07
-7.46156e-07
8.88005e-07
-8.29299e-07
7.85909e-07
-8.99539e-07
6.84996e-07
-9.56984e-07
5.87235e-07
-1.00194e-06
4.94236e-07
-1.03485e-06
4.07072e-07
-1.05619e-06
3.26048e-07
-1.06645e-06
2.51041e-07
-1.06605e-06
1.813e-07
-1.05518e-06
1.14977e-07
-1.03396e-06
5.07899e-08
-1.00229e-06
-1.32691e-08
-9.60044e-07
-7.83807e-08
-9.06955e-07
-1.46259e-07
-8.4295e-07
-2.17113e-07
-7.67856e-07
-2.92013e-07
-6.81976e-07
-3.69769e-07
-5.85726e-07
-4.49921e-07
-4.8004e-07
-5.30504e-07
-3.6646e-07
-6.08976e-07
-2.46671e-07
-6.83501e-07
-1.23151e-07
-7.50245e-07
1.00233e-09
-8.05427e-07
1.22149e-07
-8.45572e-07
2.36426e-07
-8.68291e-07
3.39639e-07
-8.71772e-07
4.27665e-07
-8.54892e-07
4.96885e-07
-8.16763e-07
5.44456e-07
-7.56552e-07
5.68537e-07
-6.73727e-07
5.68537e-07
-5.68536e-07
5.45351e-07
-4.42406e-07
5.01576e-07
-2.98407e-07
4.41693e-07
-1.41741e-07
3.72641e-07
2.10976e-08
3.05378e-07
1.81812e-07
2.45798e-07
2.99474e-07
1.88234e-07
3.19599e-07
1.30148e-07
2.58218e-07
7.78644e-08
1.79285e-07
3.67446e-08
1.13529e-07
9.95921e-09
6.03844e-08
1.7692e-08
-1.50395e-07
1.49025e-06
-2.91954e-07
1.40648e-06
-4.2321e-07
1.31135e-06
-5.42973e-07
1.20705e-06
-6.50317e-07
1.09653e-06
-7.44557e-07
9.82245e-07
-8.25251e-07
8.66603e-07
-8.9221e-07
7.51954e-07
-9.45488e-07
6.40513e-07
-9.85351e-07
5.34099e-07
-1.0122e-06
4.33922e-07
-1.02646e-06
3.40304e-07
-1.02855e-06
2.53135e-07
-1.01886e-06
1.71614e-07
-9.97522e-07
9.3636e-08
-9.64621e-07
1.78892e-08
-9.20055e-07
-5.78352e-08
-8.63788e-07
-1.34648e-07
-7.95664e-07
-2.14383e-07
-7.15921e-07
-2.96855e-07
-6.24672e-07
-3.83262e-07
-5.22828e-07
-4.71613e-07
-4.11353e-07
-5.61396e-07
-2.91881e-07
-6.49975e-07
-1.6687e-07
-7.33987e-07
-3.87052e-08
-8.11666e-07
8.94802e-08
-8.7843e-07
2.14231e-07
-9.30178e-07
3.31668e-07
-9.63009e-07
4.37836e-07
-9.74459e-07
5.28508e-07
-9.62445e-07
5.99864e-07
-9.26247e-07
6.48899e-07
-8.65799e-07
6.73728e-07
-7.8138e-07
6.73728e-07
-6.73727e-07
6.49647e-07
-5.44455e-07
6.03749e-07
-3.96508e-07
5.40011e-07
-2.34669e-07
4.64144e-07
-6.58746e-08
3.84121e-07
1.0112e-07
3.11214e-07
2.54719e-07
2.4996e-07
3.60728e-07
1.92472e-07
3.77087e-07
1.34316e-07
3.16374e-07
8.09037e-08
2.32698e-07
3.82898e-08
1.56143e-07
1.03652e-08
8.8309e-08
2.80572e-08
-1.5001e-07
1.64026e-06
-2.90975e-07
1.54745e-06
-4.21246e-07
1.44162e-06
-5.39489e-07
1.32529e-06
-6.44663e-07
1.20171e-06
-7.35986e-07
1.07357e-06
-8.12932e-07
9.43549e-07
-8.75241e-07
8.14264e-07
-9.22909e-07
6.88181e-07
-9.56149e-07
5.67339e-07
-9.7531e-07
4.53083e-07
-9.80744e-07
3.45738e-07
-9.72837e-07
2.45227e-07
-9.51946e-07
1.50723e-07
-9.18148e-07
5.98381e-08
-8.71573e-07
-2.86859e-08
-8.12174e-07
-1.17234e-07
-7.40106e-07
-2.06716e-07
-6.55412e-07
-2.99077e-07
-5.58867e-07
-3.934e-07
-4.50898e-07
-4.91231e-07
-3.33281e-07
-5.8923e-07
-2.07756e-07
-6.8692e-07
-7.67218e-08
-7.8101e-07
5.66886e-08
-8.67397e-07
1.88657e-07
-9.43635e-07
3.15595e-07
-1.00537e-06
4.34159e-07
-1.04874e-06
5.41139e-07
-1.06999e-06
6.3305e-07
-1.06637e-06
7.05717e-07
-1.03511e-06
7.55892e-07
-9.76423e-07
7.81381e-07
-8.91288e-07
7.81381e-07
-7.8138e-07
7.56552e-07
-6.48898e-07
7.08981e-07
-4.96883e-07
6.42234e-07
-3.29762e-07
5.61398e-07
-1.53833e-07
4.73055e-07
2.2469e-08
3.85547e-07
1.88628e-07
3.09263e-07
3.31004e-07
2.46884e-07
4.23106e-07
1.89581e-07
4.3439e-07
1.32427e-07
3.73528e-07
7.9801e-08
2.85324e-07
3.76987e-08
1.98245e-07
1.01546e-08
1.15853e-07
3.82118e-08
-1.48412e-07
1.78867e-06
-2.87587e-07
1.68662e-06
-4.15672e-07
1.56971e-06
-5.31166e-07
1.44079e-06
-6.32898e-07
1.30344e-06
-7.19978e-07
1.16065e-06
-7.91784e-07
1.01536e-06
-8.47972e-07
8.70452e-07
-8.88463e-07
7.28673e-07
-9.13407e-07
5.92283e-07
-9.23098e-07
4.62774e-07
-9.17819e-07
3.40459e-07
-8.97927e-07
2.25335e-07
-8.63797e-07
1.16592e-07
-8.15501e-07
1.15424e-08
-7.53292e-07
-9.08947e-08
-6.77256e-07
-1.9327e-07
-5.87918e-07
-2.96054e-07
-4.85519e-07
-4.01476e-07
-3.7165e-07
-5.0727e-07
-2.4721e-07
-6.15671e-07
-1.14585e-07
-7.21855e-07
2.28212e-08
-8.24326e-07
1.61441e-07
-9.1963e-07
2.97776e-07
-1.00373e-06
4.27232e-07
-1.07309e-06
5.46674e-07
-1.12481e-06
6.53072e-07
-1.15514e-06
7.43562e-07
-1.16048e-06
8.15231e-07
-1.13804e-06
8.65484e-07
-1.08536e-06
8.91288e-07
-1.00223e-06
8.91288e-07
-8.91288e-07
8.65799e-07
-7.55891e-07
8.16764e-07
-5.99863e-07
7.47544e-07
-4.27664e-07
6.62805e-07
-2.45023e-07
5.68433e-07
-5.946e-08
4.71385e-07
1.19516e-07
3.79644e-07
2.80369e-07
3.0182e-07
4.08828e-07
2.38792e-07
4.86135e-07
1.81902e-07
4.91279e-07
1.26481e-07
4.28949e-07
7.59214e-08
3.35884e-07
3.56891e-08
2.38478e-07
9.54464e-09
1.41998e-07
4.77564e-08
-1.45489e-07
1.93416e-06
-2.81575e-07
1.82271e-06
-4.06167e-07
1.6943e-06
-5.17579e-07
1.5522e-06
-6.14493e-07
1.40035e-06
-6.95892e-07
1.24205e-06
-7.61044e-07
1.08051e-06
-8.095e-07
9.18908e-07
-8.41092e-07
7.60265e-07
-8.55899e-07
6.0709e-07
-8.54163e-07
4.61038e-07
-8.36111e-07
3.22407e-07
-8.02114e-07
1.91338e-07
-7.52643e-07
6.71211e-08
-6.8782e-07
-5.32812e-08
-6.08167e-07
-1.70548e-07
-5.13927e-07
-2.87509e-07
-4.0628e-07
-4.03701e-07
-2.85778e-07
-5.21978e-07
-1.54404e-07
-6.38644e-07
-1.56081e-08
-7.54466e-07
1.27602e-07
-8.65065e-07
2.70447e-07
-9.67171e-07
4.09084e-07
-1.05827e-06
5.40352e-07
-1.135e-06
6.60739e-07
-1.19348e-06
7.67375e-07
-1.23145e-06
8.57497e-07
-1.24526e-06
9.28395e-07
-1.23138e-06
9.77106e-07
-1.18675e-06
1.00223e-06
-1.11049e-06
1.00223e-06
-1.00223e-06
9.76423e-07
-8.65483e-07
9.26248e-07
-7.05716e-07
8.54892e-07
-5.28507e-07
7.66866e-07
-3.39638e-07
6.67685e-07
-1.45842e-07
5.63656e-07
4.45691e-08
4.61578e-07
2.21594e-07
3.68408e-07
3.73539e-07
2.90474e-07
4.86761e-07
2.27255e-07
5.49355e-07
1.71122e-07
5.47412e-07
1.17979e-07
4.82093e-07
7.03208e-08
3.83542e-07
3.28195e-08
2.75979e-07
8.70073e-09
1.66116e-07
5.64572e-08
-1.41103e-07
2.07526e-06
-2.72664e-07
1.95427e-06
-3.92329e-07
1.81396e-06
-4.98196e-07
1.65807e-06
-5.88782e-07
1.49094e-06
-6.62922e-07
1.31619e-06
-7.19747e-07
1.13733e-06
-7.58685e-07
9.57846e-07
-7.7946e-07
7.8104e-07
-7.82083e-07
6.09713e-07
-7.66769e-07
4.45724e-07
-7.33728e-07
2.89367e-07
-6.83396e-07
1.41007e-07
-6.16486e-07
2.10688e-10
-5.33174e-07
-1.36593e-07
-4.34536e-07
-2.69185e-07
-3.21007e-07
-4.01038e-07
-1.94391e-07
-5.30318e-07
-5.76348e-08
-6.58734e-07
8.67705e-08
-7.83049e-07
2.32937e-07
-9.00633e-07
3.77834e-07
-1.00996e-06
5.17662e-07
-1.107e-06
6.49147e-07
-1.18975e-06
7.69476e-07
-1.25533e-06
8.76151e-07
-1.30015e-06
9.66192e-07
-1.32149e-06
1.03678e-06
-1.31585e-06
1.08545e-06
-1.28005e-06
1.11049e-06
-1.21179e-06
1.11049e-06
-1.11049e-06
1.08536e-06
-9.77106e-07
1.03511e-06
-8.1523e-07
9.62445e-07
-6.33049e-07
8.71773e-07
-4.37835e-07
7.6856e-07
-2.36425e-07
6.58895e-07
-3.61768e-08
5.49117e-07
1.54347e-07
4.45389e-07
3.25321e-07
3.5314e-07
4.65789e-07
2.7618e-07
5.63721e-07
2.13163e-07
6.12372e-07
1.58185e-07
6.0239e-07
1.07821e-07
5.32456e-07
6.36635e-08
4.277e-07
2.94442e-08
3.10198e-07
7.72473e-09
1.87836e-07
6.41819e-08
-1.3509e-07
2.21035e-06
-2.60533e-07
2.07971e-06
-3.7368e-07
1.92711e-06
-4.72384e-07
1.75677e-06
-5.54966e-07
1.57352e-06
-6.20089e-07
1.38131e-06
-6.66718e-07
1.18396e-06
-6.94131e-07
9.85259e-07
-7.01934e-07
7.88843e-07
-6.90087e-07
5.97866e-07
-6.58834e-07
4.14471e-07
-6.08452e-07
2.38985e-07
-5.39475e-07
7.20295e-08
-4.53082e-07
-8.61822e-08
-3.49586e-07
-2.40089e-07
-2.30868e-07
-3.87904e-07
-9.9512e-08
-5.32394e-07
4.19355e-08
-6.71765e-07
1.88068e-07
-8.04867e-07
3.35961e-07
-9.30942e-07
4.8125e-07
-1.04592e-06
6.20851e-07
-1.14956e-06
7.52188e-07
-1.23834e-06
8.7241e-07
-1.30997e-06
9.78643e-07
-1.36156e-06
1.06828e-06
-1.38979e-06
1.13856e-06
-1.39177e-06
1.18703e-06
-1.36431e-06
1.21179e-06
-1.30481e-06
1.21179e-06
-1.21179e-06
1.18675e-06
-1.08545e-06
1.13804e-06
-9.28394e-07
1.06637e-06
-7.43561e-07
9.7446e-07
-5.41137e-07
8.68291e-07
-3.31666e-07
7.54014e-07
-1.22148e-07
6.3795e-07
7.98871e-08
5.26124e-07
2.66173e-07
4.23754e-07
4.27691e-07
3.34511e-07
5.55031e-07
2.59437e-07
6.38795e-07
1.96912e-07
6.74897e-07
1.43633e-07
6.55669e-07
9.66836e-08
5.79406e-07
5.64924e-08
4.67891e-07
2.5856e-08
3.40834e-07
6.69683e-09
2.06995e-07
7.08787e-08
-1.27261e-07
2.33761e-06
-2.4481e-07
2.19726e-06
-3.49667e-07
2.03197e-06
-4.39399e-07
1.8465e-06
-5.12101e-07
1.64622e-06
-5.66227e-07
1.43544e-06
-6.00542e-07
1.21828e-06
-6.14153e-07
9.9887e-07
-6.06551e-07
7.81241e-07
-5.77678e-07
5.68993e-07
-5.27906e-07
3.64699e-07
-4.57676e-07
1.68755e-07
-3.67877e-07
-1.7769e-08
-2.60112e-07
-1.93948e-07
-1.37335e-07
-3.62866e-07
-2.18473e-09
-5.23053e-07
1.40379e-07
-6.74958e-07
2.87525e-07
-8.1891e-07
4.35008e-07
-9.5235e-07
5.79584e-07
-1.07552e-06
7.1877e-07
-1.18511e-06
8.4934e-07
-1.28013e-06
9.68646e-07
-1.35764e-06
1.07397e-06
-1.41529e-06
1.16264e-06
-1.45024e-06
1.2322e-06
-1.45935e-06
1.28023e-06
-1.43979e-06
1.30481e-06
-1.3889e-06
1.30481e-06
-1.30481e-06
1.28005e-06
-1.18703e-06
1.23138e-06
-1.03677e-06
1.16048e-06
-8.57496e-07
1.06999e-06
-6.53071e-07
9.63008e-07
-4.34157e-07
8.45572e-07
-2.1423e-07
7.24426e-07
-1.00098e-09
6.05792e-07
1.98521e-07
4.95054e-07
3.76911e-07
3.96307e-07
5.26438e-07
3.11637e-07
6.39701e-07
2.39998e-07
7.10433e-07
1.798e-07
7.35096e-07
1.29534e-07
7.05935e-07
8.63561e-08
6.22584e-07
5.0028e-08
5.04219e-07
2.26989e-08
3.68164e-07
5.81605e-09
2.23878e-07
7.66948e-08
-1.17403e-07
2.45501e-06
-2.25073e-07
2.30493e-06
-3.19654e-07
2.12655e-06
-3.9838e-07
1.92523e-06
-4.59077e-07
1.70692e-06
-4.99949e-07
1.47631e-06
-5.19528e-07
1.23786e-06
-5.1674e-07
9.96082e-07
-4.90997e-07
7.55498e-07
-4.42259e-07
5.20255e-07
-3.71157e-07
2.93597e-07
-2.78413e-07
7.60105e-08
-1.67515e-07
-1.28666e-07
-4.12106e-08
-3.20253e-07
9.46969e-08
-4.98774e-07
2.37699e-07
-6.66056e-07
3.8386e-07
-8.21119e-07
5.30092e-07
-9.65142e-07
6.73703e-07
-1.09596e-06
8.11315e-07
-1.21313e-06
9.40348e-07
-1.31414e-06
1.05795e-06
-1.39774e-06
1.16167e-06
-1.46136e-06
1.24896e-06
-1.50258e-06
1.31736e-06
-1.51863e-06
1.36464e-06
-1.50663e-06
1.3889e-06
-1.46405e-06
1.3889e-06
-1.3889e-06
1.36431e-06
-1.28023e-06
1.31585e-06
-1.13856e-06
1.24526e-06
-9.66191e-07
1.15514e-06
-7.67374e-07
1.04874e-06
-5.46673e-07
9.30178e-07
-3.15593e-07
8.05426e-07
-8.94789e-08
6.81273e-07
1.23153e-07
5.63376e-07
3.16418e-07
4.5616e-07
4.84127e-07
3.62477e-07
6.20121e-07
2.83232e-07
7.18947e-07
2.17336e-07
7.76329e-07
1.63101e-07
7.8933e-07
1.17673e-07
7.51363e-07
7.81538e-08
6.62103e-07
4.51097e-08
5.37263e-07
2.04271e-08
3.92846e-07
5.24116e-09
2.39064e-07
8.19359e-08
-1.05272e-07
2.56029e-06
-2.00835e-07
2.4005e-06
-2.82904e-07
2.20862e-06
-3.48318e-07
1.99064e-06
-3.94584e-07
1.75318e-06
-4.1961e-07
1.50134e-06
-4.21669e-07
1.23992e-06
-3.99527e-07
9.73939e-07
-3.52584e-07
7.08555e-07
-2.80981e-07
4.48652e-07
-1.85862e-07
1.98477e-07
-7.19082e-08
-3.79428e-08
5.50503e-08
-2.55625e-07
1.91375e-07
-4.56577e-07
3.33108e-07
-6.40507e-07
4.77562e-07
-8.1051e-07
6.22119e-07
-9.65677e-07
7.63425e-07
-1.10645e-06
8.98731e-07
-1.23127e-06
1.02515e-06
-1.33955e-06
1.14035e-06
-1.42934e-06
1.24178e-06
-1.49917e-06
1.32713e-06
-1.5467e-06
1.39402e-06
-1.56948e-06
1.44028e-06
-1.56489e-06
1.46405e-06
-1.53041e-06
1.46405e-06
-1.46405e-06
1.43979e-06
-1.36464e-06
1.39177e-06
-1.2322e-06
1.32149e-06
-1.06828e-06
1.23145e-06
-8.7615e-07
1.12481e-06
-6.60738e-07
1.00537e-06
-4.27231e-07
8.7843e-07
-1.88655e-07
7.50245e-07
3.87065e-08
6.26725e-07
2.46672e-07
5.12583e-07
4.3056e-07
4.11155e-07
5.85556e-07
3.24178e-07
7.07097e-07
2.51722e-07
7.91404e-07
1.92446e-07
8.35605e-07
1.44354e-07
8.37422e-07
1.04178e-07
7.91539e-07
6.91299e-08
6.97151e-07
3.98391e-08
5.66554e-07
1.80106e-08
4.14674e-07
4.61487e-09
2.52459e-07
8.65508e-08
-9.05867e-08
2.65087e-06
-1.7153e-07
2.48144e-06
-2.38551e-07
2.27564e-06
-2.88019e-07
2.04011e-06
-3.17066e-07
1.78223e-06
-3.23265e-07
1.50753e-06
-3.04622e-07
1.22127e-06
-2.59791e-07
9.29108e-07
-1.88328e-07
6.37093e-07
-9.17472e-08
3.52071e-07
2.46196e-08
8.21105e-08
1.52107e-07
-1.6543e-07
2.87268e-07
-3.90786e-07
4.27076e-07
-5.96385e-07
5.69389e-07
-7.8282e-07
7.1101e-07
-9.52131e-07
8.49173e-07
-1.10384e-06
9.8098e-07
-1.23825e-06
1.10405e-06
-1.35433e-06
1.21591e-06
-1.45141e-06
1.31442e-06
-1.52786e-06
1.39728e-06
-1.58203e-06
1.46226e-06
-1.61169e-06
1.50725e-06
-1.61447e-06
1.53041e-06
-1.58804e-06
1.53041e-06
-1.53041e-06
1.50663e-06
-1.44028e-06
1.45935e-06
-1.31736e-06
1.38979e-06
-1.16264e-06
1.30015e-06
-9.78642e-07
1.19348e-06
-7.69475e-07
1.07309e-06
-5.40351e-07
9.43634e-07
-2.97775e-07
8.11666e-07
-5.66873e-08
6.83501e-07
1.66872e-07
5.63712e-07
3.66461e-07
4.55801e-07
5.3847e-07
3.61965e-07
6.79392e-07
2.82942e-07
7.8612e-07
2.18102e-07
8.56244e-07
1.65784e-07
8.87923e-07
1.23788e-07
8.79418e-07
8.89642e-08
8.26362e-07
5.88161e-08
7.27299e-07
3.37643e-08
5.91605e-07
1.51976e-08
4.33241e-07
3.87277e-09
2.63784e-07
9.04235e-08
-7.30085e-08
2.72388e-06
-1.36478e-07
2.54491e-06
-1.85557e-07
2.32472e-06
-2.16055e-07
2.07061e-06
-2.24682e-07
1.79086e-06
-2.08655e-07
1.49151e-06
-1.65749e-07
1.17837e-06
-9.46949e-08
8.58054e-07
3.13075e-09
5.39268e-07
1.20681e-07
2.3452e-07
2.48742e-07
-4.59505e-08
3.82485e-07
-2.99173e-07
5.20166e-07
-5.28467e-07
6.59214e-07
-7.35434e-07
7.97091e-07
-9.20696e-07
9.30949e-07
-1.08599e-06
1.0584e-06
-1.2313e-06
1.17705e-06
-1.35691e-06
1.28487e-06
-1.46215e-06
1.3797e-06
-1.54624e-06
1.45952e-06
-1.60768e-06
1.52218e-06
-1.64469e-06
1.56562e-06
-1.65514e-06
1.58804e-06
-1.63688e-06
1.58804e-06
-1.58804e-06
1.56489e-06
-1.50725e-06
1.51863e-06
-1.39402e-06
1.45024e-06
-1.24896e-06
1.36156e-06
-1.07397e-06
1.25533e-06
-8.7241e-07
1.135e-06
-6.49146e-07
1.00373e-06
-4.09082e-07
8.67396e-07
-1.6144e-07
7.33986e-07
7.67231e-08
6.08975e-07
2.91883e-07
4.95395e-07
4.80042e-07
3.95517e-07
6.38348e-07
3.10463e-07
7.64446e-07
2.40113e-07
8.56469e-07
1.8328e-07
9.13077e-07
1.38052e-07
9.33151e-07
1.02162e-07
9.15308e-07
7.27694e-08
8.55755e-07
4.7712e-08
7.52356e-07
2.7163e-08
6.12154e-07
1.21169e-08
4.48287e-07
3.0529e-09
2.72848e-07
9.34764e-08
-5.21212e-08
2.776e-06
-9.48435e-08
2.58763e-06
-1.22652e-07
2.35253e-06
-1.30711e-07
2.07867e-06
-1.15276e-07
1.77542e-06
-7.32476e-08
1.44948e-06
-2.39288e-09
1.10751e-06
9.6631e-08
7.5903e-07
2.15649e-07
4.2025e-07
3.43987e-07
1.06181e-07
4.76473e-07
-1.78436e-07
6.11639e-07
-4.3434e-07
7.47038e-07
-6.63866e-07
8.80181e-07
-8.68577e-07
1.00892e-06
-1.04943e-06
1.13093e-06
-1.20801e-06
1.24433e-06
-1.34469e-06
1.34717e-06
-1.45975e-06
1.43766e-06
-1.55263e-06
1.51383e-06
-1.62242e-06
1.57373e-06
-1.66757e-06
1.61535e-06
-1.68631e-06
1.63688e-06
-1.67667e-06
1.63688e-06
-1.63688e-06
1.61447e-06
-1.56563e-06
1.56948e-06
-1.46226e-06
1.50258e-06
-1.32713e-06
1.41529e-06
-1.16167e-06
1.30997e-06