/*--------------------------------*- C++ -*----------------------------------*\
| =========                 |                                                 |
| \\      /  F ield         | OpenFOAM: The Open Source CFD Toolbox           |
|  \\    /   O peration     | Version:  2412                                  |
|   \\  /    A nd           | Website:  www.openfoam.com                      |
|    \\/     M anipulation  |                                                 |
\*---------------------------------------------------------------------------*/
FoamFile
{
    version     2.0;
    format      ascii;
    arch        "LSB;label=32;scalar=64";
    class       volSymmTensorField;
    location    "1830";
    object      Rij;
}
// * * * * * * * * * * * * * * * * * * * * * * * * * * * * * * * * * * * * * //

dimensions      [0 2 -2 0 0 0 0];

internalField   nonuniform List<symmTensor> 
2304
(
(1.02386e-05 3.79473e-13 -9.40608e-08 1.02406e-05 1.46671e-10 1.02424e-05)
(1.02572e-05 1.19954e-12 -9.4317e-08 1.02592e-05 4.32346e-10 1.0261e-05)
(1.02912e-05 2.25971e-12 -9.47872e-08 1.02932e-05 7.02263e-10 1.0295e-05)
(1.0337e-05 3.91259e-12 -9.54223e-08 1.0339e-05 9.54785e-10 1.03408e-05)
(1.03898e-05 6.51214e-12 -9.61567e-08 1.03918e-05 1.1882e-09 1.03937e-05)
(1.04447e-05 1.02758e-11 -9.69216e-08 1.04467e-05 1.40147e-09 1.04486e-05)
(1.04967e-05 1.53311e-11 -9.76478e-08 1.04987e-05 1.5936e-09 1.05006e-05)
(1.05412e-05 2.16869e-11 -9.8272e-08 1.05433e-05 1.76425e-09 1.05452e-05)
(1.05745e-05 2.92149e-11 -9.87402e-08 1.05766e-05 1.91353e-09 1.05785e-05)
(1.05938e-05 3.76497e-11 -9.90132e-08 1.05959e-05 2.04225e-09 1.05978e-05)
(1.05975e-05 4.66221e-11 -9.90685e-08 1.05996e-05 2.15173e-09 1.06016e-05)
(1.05854e-05 5.57092e-11 -9.89015e-08 1.05875e-05 2.24381e-09 1.05894e-05)
(1.05581e-05 6.4483e-11 -9.8523e-08 1.05602e-05 2.32044e-09 1.05621e-05)
(1.05174e-05 7.25592e-11 -9.79573e-08 1.05194e-05 2.38371e-09 1.05214e-05)
(1.04655e-05 7.97143e-11 -9.7237e-08 1.04675e-05 2.43524e-09 1.04694e-05)
(1.04047e-05 8.58873e-11 -9.63953e-08 1.04067e-05 2.47617e-09 1.04086e-05)
(1.03371e-05 9.11857e-11 -9.5463e-08 1.03391e-05 2.50699e-09 1.0341e-05)
(1.02644e-05 9.58933e-11 -9.44625e-08 1.02664e-05 2.52746e-09 1.02682e-05)
(1.01874e-05 1.00483e-10 -9.34063e-08 1.01893e-05 2.53665e-09 1.01911e-05)
(1.01059e-05 1.05598e-10 -9.2292e-08 1.01078e-05 2.53292e-09 1.01096e-05)
(1.00186e-05 1.12054e-10 -9.11038e-08 1.00205e-05 2.51424e-09 1.00223e-05)
(9.92317e-06 1.20786e-10 -8.98079e-08 9.92498e-06 2.47827e-09 9.92675e-06)
(9.81587e-06 1.32737e-10 -8.83574e-08 9.81764e-06 2.42264e-09 9.81938e-06)
(9.69223e-06 1.48818e-10 -8.66945e-08 9.69394e-06 2.3451e-09 9.69566e-06)
(9.54706e-06 1.69793e-10 -8.4754e-08 9.54871e-06 2.24422e-09 9.55039e-06)
(9.37485e-06 1.96088e-10 -8.24701e-08 9.37643e-06 2.11978e-09 9.37807e-06)
(9.17036e-06 2.27464e-10 -7.97841e-08 9.17186e-06 1.97337e-09 9.17345e-06)
(8.92952e-06 2.62854e-10 -7.66583e-08 8.93094e-06 1.80856e-09 8.93247e-06)
(8.65017e-06 3.01104e-10 -7.30849e-08 8.65149e-06 1.63043e-09 8.65294e-06)
(8.33105e-06 3.43095e-10 -6.90732e-08 8.33226e-06 1.43889e-09 8.33364e-06)
(7.96798e-06 3.90161e-10 -6.46019e-08 7.96908e-06 1.23189e-09 7.97037e-06)
(7.55633e-06 4.41457e-10 -5.96546e-08 7.55729e-06 1.01354e-09 7.55849e-06)
(7.09281e-06 4.94798e-10 -5.42437e-08 7.09364e-06 7.91202e-10 7.09473e-06)
(6.57575e-06 5.47015e-10 -4.84143e-08 6.57645e-06 5.73892e-10 6.57742e-06)
(6.00585e-06 5.93331e-10 -4.22515e-08 6.00642e-06 3.72429e-10 6.00726e-06)
(5.38773e-06 6.27129e-10 -3.58924e-08 5.38818e-06 1.98841e-10 5.38888e-06)
(4.73154e-06 6.40755e-10 -2.95325e-08 4.73188e-06 6.44239e-11 4.73242e-06)
(4.05398e-06 6.27572e-10 -2.34161e-08 4.05424e-06 -2.34419e-11 4.05463e-06)
(3.37775e-06 5.84831e-10 -1.78044e-08 3.37794e-06 -6.47292e-11 3.37819e-06)
(2.72864e-06 5.1594e-10 -1.29242e-08 2.72877e-06 -6.82463e-11 2.72891e-06)
(2.13065e-06 4.30285e-10 -8.91616e-09 2.13074e-06 -4.99427e-11 2.13081e-06)
(1.6013e-06 3.3976e-10 -5.80804e-09 1.60136e-06 -2.73979e-11 1.60138e-06)
(1.14896e-06 2.53903e-10 -3.52836e-09 1.14899e-06 -1.14798e-11 1.149e-06)
(7.75133e-07 1.78032e-10 -1.95264e-09 7.75147e-07 -3.68146e-12 7.75151e-07)
(4.77803e-07 1.14427e-10 -9.41915e-10 4.77809e-07 -9.11065e-13 4.77811e-07)
(2.53817e-07 6.39881e-11 -3.61697e-10 2.53819e-07 -1.98545e-13 2.5382e-07)
(1.00915e-07 2.73849e-11 -8.82583e-11 1.00915e-07 -4.55869e-14 1.00915e-07)
(2.04325e-08 6.31417e-12 -6.31417e-12 2.04325e-08 -4.3435e-15 2.04325e-08)
(8.7037e-06 3.66802e-11 -4.70419e-07 8.75969e-06 6.60231e-10 8.81512e-06)
(8.71556e-06 1.09418e-10 -4.71491e-07 8.77172e-06 1.94535e-09 8.82735e-06)
(8.7372e-06 1.82668e-10 -4.73453e-07 8.79366e-06 3.15736e-09 8.84965e-06)
(8.76626e-06 2.61645e-10 -4.76097e-07 8.82314e-06 4.28861e-09 8.8796e-06)
(8.79928e-06 3.51439e-10 -4.79125e-07 8.85663e-06 5.33107e-09 8.91366e-06)
(8.83257e-06 4.55037e-10 -4.82223e-07 8.8904e-06 6.27961e-09 8.94801e-06)
(8.86232e-06 5.73985e-10 -4.85067e-07 8.92059e-06 7.12963e-09 8.97876e-06)
(8.88491e-06 7.08036e-10 -4.8735e-07 8.94354e-06 7.87904e-09 9.00217e-06)
(8.89714e-06 8.54899e-10 -4.88808e-07 8.956e-06 8.52775e-09 9.01497e-06)
(8.89655e-06 1.0103e-09 -4.89237e-07 8.95548e-06 9.07859e-09 9.01462e-06)
(8.88159e-06 1.16851e-09 -4.88517e-07 8.94042e-06 9.5368e-09 8.99954e-06)
(8.85175e-06 1.32313e-09 -4.86611e-07 8.91029e-06 9.90979e-09 8.96919e-06)
(8.80745e-06 1.46786e-09 -4.83565e-07 8.86552e-06 1.0206e-08 8.92403e-06)
(8.74999e-06 1.59718e-09 -4.79496e-07 8.80745e-06 1.04344e-08 8.86539e-06)
(8.68138e-06 1.70809e-09 -4.74574e-07 8.73811e-06 1.0603e-08 8.79534e-06)
(8.60381e-06 1.80013e-09 -4.68978e-07 8.65969e-06 1.07174e-08 8.71613e-06)
(8.51956e-06 1.87533e-09 -4.62887e-07 8.57453e-06 1.07814e-08 8.63009e-06)
(8.43058e-06 1.93833e-09 -4.56449e-07 8.48458e-06 1.07959e-08 8.53922e-06)
(8.33849e-06 1.99647e-09 -4.49775e-07 8.39147e-06 1.07592e-08 8.44517e-06)
(8.24429e-06 2.05952e-09 -4.42918e-07 8.29622e-06 1.06674e-08 8.34898e-06)
(8.14867e-06 2.13972e-09 -4.35887e-07 8.19951e-06 1.05151e-08 8.25132e-06)
(8.05054e-06 2.25075e-09 -4.28565e-07 8.10022e-06 1.02943e-08 8.15105e-06)
(7.94716e-06 2.40621e-09 -4.20746e-07 7.99559e-06 9.99641e-09 8.04539e-06)
(7.83527e-06 2.61937e-09 -4.12173e-07 7.88234e-06 9.61334e-09 7.931e-06)
(7.71087e-06 2.90145e-09 -4.02543e-07 7.75638e-06 9.13956e-09 7.80377e-06)
(7.56923e-06 3.25905e-09 -3.91526e-07 7.61299e-06 8.57316e-09 7.65889e-06)
(7.40522e-06 3.68925e-09 -3.78792e-07 7.447e-06 7.91839e-09 7.49115e-06)
(7.21414e-06 4.17684e-09 -3.64083e-07 7.25366e-06 7.18832e-09 7.29577e-06)
(6.99284e-06 4.70514e-09 -3.47282e-07 7.02984e-06 6.40581e-09 7.06961e-06)
(6.74002e-06 5.28814e-09 -3.28421e-07 6.77422e-06 5.57456e-09 6.81144e-06)
(6.45238e-06 5.94677e-09 -3.07399e-07 6.48352e-06 4.68939e-09 6.51796e-06)
(6.12615e-06 6.66994e-09 -2.84136e-07 6.15401e-06 3.77001e-09 6.1854e-06)
(5.75801e-06 7.42672e-09 -2.58657e-07 5.78241e-06 2.84672e-09 5.81047e-06)
(5.34466e-06 8.17009e-09 -2.31091e-07 5.3655e-06 1.95325e-09 5.39e-06)
(4.88345e-06 8.82527e-09 -2.01712e-07 4.90072e-06 1.13014e-09 4.92145e-06)
(4.37391e-06 9.28386e-09 -1.71036e-07 4.38771e-06 4.24662e-10 4.40456e-06)
(3.82008e-06 9.41486e-09 -1.39899e-07 3.83067e-06 -1.15087e-10 3.84364e-06)
(3.23293e-06 9.09886e-09 -1.09491e-07 3.24068e-06 -4.52721e-10 3.24998e-06)
(2.63193e-06 8.28171e-09 -8.12505e-08 2.63732e-06 -5.80699e-10 2.6434e-06)
(2.04444e-06 7.02429e-09 -5.6608e-08 2.04797e-06 -5.32246e-10 2.05151e-06)
(1.50172e-06 5.50805e-09 -3.66295e-08 1.50386e-06 -3.81743e-10 1.50568e-06)
(1.03241e-06 3.97561e-09 -2.17434e-08 1.03357e-06 -2.21642e-10 1.0344e-06)
(6.55199e-07 2.62536e-09 -1.16267e-08 6.55755e-07 -1.08921e-10 6.56094e-07)
(3.75953e-07 1.56305e-09 -5.43579e-09 3.76177e-07 -4.72813e-11 3.763e-07)
(1.88429e-07 8.12192e-10 -2.106e-09 1.88502e-07 -1.79696e-11 1.88538e-07)
(7.80736e-08 3.41891e-10 -6.03879e-10 7.80913e-08 -5.24405e-12 7.80973e-08)
(3.21492e-08 1.14206e-10 -1.14206e-10 3.2152e-08 -8.21877e-13 3.2152e-08)
(1.00915e-07 8.82582e-11 -2.73849e-11 1.00915e-07 -4.55875e-14 1.00915e-07)
(5.16281e-05 1.69624e-09 -8.36195e-06 5.40684e-05 1.05374e-08 5.64961e-05)
(5.16901e-05 5.034e-09 -8.37925e-06 5.41363e-05 3.10039e-08 5.65709e-05)
(5.18029e-05 8.32126e-09 -8.41088e-06 5.42601e-05 5.02607e-08 5.67069e-05)
(5.19541e-05 1.172e-08 -8.4534e-06 5.4426e-05 6.82002e-08 5.68893e-05)
(5.21248e-05 1.53805e-08 -8.50187e-06 5.46135e-05 8.46455e-08 5.70958e-05)
(5.22948e-05 1.93906e-08 -8.55106e-06 5.48005e-05 9.94909e-08 5.73024e-05)
(5.2443e-05 2.37939e-08 -8.59557e-06 5.4964e-05 1.12646e-07 5.74842e-05)
(5.25492e-05 2.8579e-08 -8.63029e-06 5.50822e-05 1.24064e-07 5.76174e-05)
(5.25953e-05 3.36723e-08 -8.65074e-06 5.51354e-05 1.3374e-07 5.76807e-05)
(5.25673e-05 3.894e-08 -8.65351e-06 5.51084e-05 1.41725e-07 5.76575e-05)
(5.24559e-05 4.42049e-08 -8.63648e-06 5.49913e-05 1.48117e-07 5.75375e-05)
(5.2258e-05 4.92713e-08 -8.59903e-06 5.47808e-05 1.53058e-07 5.73168e-05)
(5.19756e-05 5.39471e-08 -8.54187e-06 5.44792e-05 1.56708e-07 5.6998e-05)
(5.16158e-05 5.80664e-08 -8.46691e-06 5.40943e-05 1.59242e-07 5.65898e-05)
(5.11902e-05 6.15433e-08 -8.37701e-06 5.36385e-05 1.60805e-07 5.61055e-05)
(5.07114e-05 6.43694e-08 -8.27519e-06 5.31254e-05 1.61505e-07 5.55599e-05)
(5.01927e-05 6.66153e-08 -8.16455e-06 5.25695e-05 1.61407e-07 5.49687e-05)
(4.96461e-05 6.84317e-08 -8.04764e-06 5.19834e-05 1.60526e-07 5.43454e-05)
(4.90817e-05 7.00532e-08 -7.92646e-06 5.1378e-05 1.58826e-07 5.37017e-05)
(4.8507e-05 7.17873e-08 -7.80215e-06 5.07608e-05 1.56225e-07 5.30456e-05)
(4.79289e-05 7.4023e-08 -7.67557e-06 5.0139e-05 1.5261e-07 5.23845e-05)
(4.73434e-05 7.71947e-08 -7.5456e-06 4.95082e-05 1.47812e-07 5.17137e-05)
(4.67341e-05 8.17136e-08 -7.40799e-06 4.88505e-05 1.41629e-07 5.10138e-05)
(4.60831e-05 8.79909e-08 -7.25847e-06 4.81465e-05 1.33882e-07 5.02638e-05)
(4.53677e-05 9.63766e-08 -7.09196e-06 4.73719e-05 1.2443e-07 4.94377e-05)
(4.45608e-05 1.07083e-07 -6.90276e-06 4.6498e-05 1.13189e-07 4.85043e-05)
(4.36316e-05 1.20039e-07 -6.68495e-06 4.54923e-05 1.00207e-07 4.74292e-05)
(4.25508e-05 1.34802e-07 -6.43352e-06 4.43242e-05 8.57682e-08 4.61796e-05)
(4.12974e-05 1.50882e-07 -6.14587e-06 4.29718e-05 7.04594e-08 4.47337e-05)
(3.98626e-05 1.68727e-07 -5.82211e-06 4.14265e-05 5.43589e-08 4.30838e-05)
(3.82264e-05 1.8899e-07 -5.46035e-06 3.96683e-05 3.7298e-08 4.12093e-05)
(3.63659e-05 2.11339e-07 -5.05894e-06 3.76749e-05 1.97246e-08 3.90868e-05)
(3.42591e-05 2.34839e-07 -4.61792e-06 3.54255e-05 2.29637e-09 3.66954e-05)
(3.18817e-05 2.5804e-07 -4.13867e-06 3.28975e-05 -1.42909e-08 3.40134e-05)
(2.92099e-05 2.78599e-07 -3.62481e-06 3.00703e-05 -2.91285e-08 3.10219e-05)
(2.62306e-05 2.93063e-07 -3.08391e-06 2.69348e-05 -4.10218e-08 2.7715e-05)
(2.29554e-05 2.9718e-07 -2.5295e-06 2.35084e-05 -4.86025e-08 2.41159e-05)
(1.9439e-05 2.86957e-07 -1.98205e-06 1.98522e-05 -5.06828e-08 2.02945e-05)
(1.57931e-05 2.60391e-07 -1.46792e-06 1.60841e-05 -4.68456e-08 1.63793e-05)
(1.21877e-05 2.19229e-07 -1.0152e-06 1.23788e-05 -3.79815e-08 1.25555e-05)
(8.83244e-06 1.69511e-07 -6.47126e-07 8.94772e-06 -2.65689e-08 9.0408e-06)
(5.92396e-06 1.19159e-07 -3.73438e-07 5.98641e-06 -1.59006e-08 6.02897e-06)
(3.6027e-06 7.50324e-08 -1.89915e-07 3.63219e-06 -8.16011e-09 3.64867e-06)
(1.9227e-06 4.09164e-08 -8.10676e-08 1.93434e-06 -3.5025e-09 1.93928e-06)
(8.47672e-07 1.76421e-08 -2.59732e-08 8.51107e-07 -1.09834e-09 8.51951e-07)
(2.74744e-07 4.62668e-09 -4.62668e-09 2.75265e-07 -1.58944e-10 2.75265e-07)
(7.80736e-08 6.03879e-10 -3.4189e-10 7.80973e-08 -5.24404e-12 7.80913e-08)
(2.53817e-07 3.61697e-10 -6.39881e-11 2.5382e-07 -1.98546e-13 2.53819e-07)
(0.00017817 3.61639e-09 -5.58347e-05 0.000193957 6.05894e-08 0.000209063)
(0.00017838 1.09683e-08 -5.59331e-05 0.000194178 1.78206e-07 0.000209295)
(0.000178763 1.91102e-08 -5.61118e-05 0.000194579 2.88719e-07 0.000209722)
(0.000179276 2.96898e-08 -5.63513e-05 0.000195115 3.91476e-07 0.000210293)
(0.000179854 4.43362e-08 -5.66234e-05 0.000195718 4.85373e-07 0.000210935)
(0.000180429 6.40493e-08 -5.68976e-05 0.000196315 5.69746e-07 0.000211572)
(0.000180929 8.94221e-08 -5.71431e-05 0.00019683 6.44042e-07 0.000212124)
(0.000181286 1.20491e-07 -5.73305e-05 0.000197191 7.07943e-07 0.000212512)
(0.000181437 1.5666e-07 -5.7434e-05 0.000197332 7.61388e-07 0.000212668)
(0.000181334 1.96693e-07 -5.74339e-05 0.000197202 8.04636e-07 0.000212539)
(0.000180947 2.38869e-07 -5.73179e-05 0.00019677 8.38237e-07 0.000212089)
(0.000180264 2.81217e-07 -5.70821e-05 0.000196023 8.6298e-07 0.000211305)
(0.000179292 3.21747e-07 -5.67301e-05 0.000194969 8.79802e-07 0.000210195)
(0.000178056 3.58682e-07 -5.62724e-05 0.000193633 8.89757e-07 0.000208785)
(0.000176594 3.91011e-07 -5.57249e-05 0.000192055 8.93734e-07 0.000207119)
(0.000174948 4.18505e-07 -5.51049e-05 0.000190279 8.92429e-07 0.000205243)
(0.000173165 4.41746e-07 -5.44297e-05 0.000188355 8.86287e-07 0.00020321)
(0.000171282 4.62165e-07 -5.37143e-05 0.000186323 8.75462e-07 0.000201066)
(0.000169336 4.82084e-07 -5.29704e-05 0.00018422 8.59773e-07 0.000198848)
(0.000167349 5.04629e-07 -5.22047e-05 0.000182071 8.38744e-07 0.000196587)
(0.000165344 5.33728e-07 -5.14239e-05 0.000179901 8.11566e-07 0.000194307)
(0.000163305 5.73744e-07 -5.06204e-05 0.00017769 7.76982e-07 0.000191991)
(0.000161179 6.29021e-07 -4.97698e-05 0.000175383 7.33515e-07 0.000189577)
(0.000158907 7.03886e-07 -4.88471e-05 0.000172916 6.7968e-07 0.000186997)
(0.000156416 8.02031e-07 -4.78219e-05 0.000170208 6.14026e-07 0.000184162)
(0.000153617 9.2586e-07 -4.66597e-05 0.000167164 5.35173e-07 0.000180964)
(0.00015041 1.07519e-06 -4.53233e-05 0.000163674 4.42297e-07 0.000177281)
(0.0001467 1.24634e-06 -4.37784e-05 0.000159631 3.36217e-07 0.00017299)
(0.000142412 1.43485e-06 -4.20016e-05 0.00015495 2.20516e-07 0.000167992)
(0.000137509 1.64469e-06 -3.99842e-05 0.000149581 9.52765e-08 0.000162232)
(0.000131933 1.88195e-06 -3.7711e-05 0.000143458 -4.15946e-08 0.000155627)
(0.000125621 2.14339e-06 -3.51684e-05 0.000136509 -1.88096e-07 0.000148083)
(0.000118507 2.41977e-06 -3.23497e-05 0.000128658 -3.40839e-07 0.000139507)
(0.000110511 2.69638e-06 -2.92535e-05 0.00011982 -4.95689e-07 0.000129792)
(0.000101553 2.9488e-06 -2.589e-05 0.000109908 -6.45058e-07 0.000118838)
(9.15697e-05 3.14021e-06 -2.22929e-05 9.88697e-05 -7.75644e-07 0.000106586)
(8.05685e-05 3.22362e-06 -1.85337e-05 8.67296e-05 -8.67788e-07 9.30834e-05)
(6.86779e-05 3.15175e-06 -1.47349e-05 7.36552e-05 -8.98229e-07 7.85582e-05)
(5.62081e-05 2.895e-06 -1.10711e-05 6.0013e-05 -8.48195e-07 6.34816e-05)
(4.36815e-05 2.46238e-06 -7.7503e-06 4.63945e-05 -7.14682e-07 4.85813e-05)
(3.18068e-05 1.91332e-06 -4.97163e-06 3.35769e-05 -5.23244e-07 3.47674e-05)
(2.13357e-05 1.33741e-06 -2.85445e-06 2.23634e-05 -3.25738e-07 2.29028e-05)
(1.28716e-05 8.18392e-07 -1.41013e-06 1.33807e-05 -1.67774e-07 1.35687e-05)
(6.72547e-06 4.10886e-07 -5.53571e-07 6.92233e-06 -6.53159e-08 6.96101e-06)
(2.84093e-06 1.44422e-07 -1.44422e-07 2.88799e-06 -1.47058e-08 2.88799e-06)
(8.47671e-07 2.59732e-08 -1.76421e-08 8.5195e-07 -1.09834e-09 8.51107e-07)
(1.88429e-07 2.106e-09 -8.12191e-10 1.88538e-07 -1.79696e-11 1.88502e-07)
(4.77803e-07 9.41915e-10 -1.14427e-10 4.77811e-07 -9.11068e-13 4.77809e-07)
(0.000451965 -6.15202e-08 -0.000174446 0.000443709 1.39193e-07 0.000431965)
(0.000452505 -1.79804e-07 -0.000174669 0.0004441 4.11465e-07 0.000432221)
(0.000453485 -2.85993e-07 -0.000175075 0.00044481 6.69325e-07 0.000432706)
(0.000454793 -3.72577e-07 -0.000175617 0.000445752 9.11298e-07 0.000433347)
(0.000456267 -4.31949e-07 -0.000176227 0.0004468 1.13756e-06 0.000434053)
(0.000457731 -4.59357e-07 -0.000176835 0.000447817 1.34762e-06 0.00043472)
(0.000459006 -4.51828e-07 -0.000177368 0.00044866 1.54077e-06 0.000435241)
(0.000459921 -4.08843e-07 -0.000177755 0.000449194 1.71607e-06 0.000435512)
(0.000460322 -3.32657e-07 -0.000177937 0.000449295 1.87244e-06 0.000435436)
(0.000460093 -2.28347e-07 -0.000177866 0.000448868 2.00878e-06 0.000434935)
(0.000459157 -1.03175e-07 -0.000177512 0.00044785 2.1241e-06 0.000433957)
(0.000457487 3.43983e-08 -0.000176864 0.000446216 2.21774e-06 0.00043248)
(0.000455099 1.75707e-07 -0.000175928 0.000443978 2.28947e-06 0.000430509)
(0.00045205 3.12845e-07 -0.000174728 0.000441181 2.33981e-06 0.000428078)
(0.000448431 4.41041e-07 -0.0001733 0.000437899 2.36981e-06 0.000425248)
(0.00044434 5.58834e-07 -0.000171683 0.000434213 2.38113e-06 0.000422088)
(0.000439882 6.68259e-07 -0.000169918 0.000430214 2.37581e-06 0.000418677)
(0.000435148 7.75115e-07 -0.000168041 0.000425981 2.35621e-06 0.000415088)
(0.000430213 8.89171e-07 -0.00016608 0.000421583 2.32475e-06 0.000411391)
(0.000425126 1.02388e-06 -0.000164053 0.000417069 2.28383e-06 0.000407639)
(0.000419929 1.1958e-06 -0.000161977 0.000412478 2.23554e-06 0.000403871)
(0.000414574 1.42355e-06 -0.00015983 0.000407771 2.18095e-06 0.000400061)
(0.000408934 1.72659e-06 -0.000157557 0.000402852 2.12019e-06 0.000396144)
(0.000402865 2.12429e-06 -0.000155096 0.000397602 2.05234e-06 0.000392021)
(0.000396187 2.63363e-06 -0.000152372 0.000391867 1.97487e-06 0.00038756)
(0.000388692 3.26718e-06 -0.000149296 0.000385459 1.88258e-06 0.000382588)
(0.000380146 4.02892e-06 -0.000145765 0.000378163 1.76716e-06 0.000376899)
(0.000370312 4.91162e-06 -0.000141677 0.000369756 1.61865e-06 0.000370261)
(0.000358979 5.90462e-06 -0.000136937 0.000360025 1.42924e-06 0.000362449)
(0.000345985 7.02047e-06 -0.00013146 0.000348787 1.19713e-06 0.000353309)
(0.000331238 8.27802e-06 -0.000125194 0.000335907 9.22164e-07 0.000342612)
(0.000314655 9.66804e-06 -0.000118088 0.000321238 5.91577e-07 0.000330094)
(0.000296131 1.11588e-05 -0.000110086 0.000304591 1.85542e-07 0.000315446)
(0.000275536 1.26923e-05 -0.000101128 0.000285731 -3.15937e-07 0.000298282)
(0.000252736 1.41643e-05 -9.11738e-05 0.000264403 -9.23689e-07 0.000278157)
(0.000227637 1.54075e-05 -8.02278e-05 0.000240378 -1.6242e-06 0.000254636)
(0.000200264 1.61903e-05 -6.83922e-05 0.000213544 -2.36092e-06 0.000227425)
(0.000170873 1.62469e-05 -5.59243e-05 0.00018404 -3.01979e-06 0.000196559)
(0.000140091 1.5348e-05 -4.32878e-05 0.000152419 -3.43596e-06 0.000162642)
(0.000109037 1.34085e-05 -3.11637e-05 0.00011978 -3.42672e-06 0.000127068)
(7.93574e-05 1.06064e-05 -2.03788e-05 8.78372e-05 -2.90232e-06 9.21406e-05)
(5.30083e-05 7.39176e-06 -1.1687e-05 5.88046e-05 -2.01963e-06 6.0751e-05)
(3.16901e-05 4.3251e-06 -5.52903e-06 3.48754e-05 -1.08748e-06 3.54119e-05)
(1.63208e-05 1.92896e-06 -1.92896e-06 1.7527e-05 -3.85808e-07 1.7527e-05)
(6.72547e-06 5.53571e-07 -4.10886e-07 6.96101e-06 -6.53159e-08 6.92233e-06)
(1.9227e-06 8.10675e-08 -4.09163e-08 1.93928e-06 -3.5025e-09 1.93433e-06)
(3.75953e-07 5.43579e-09 -1.56305e-09 3.763e-07 -4.72812e-11 3.76177e-07)
(7.75133e-07 1.95263e-09 -1.78031e-10 7.75151e-07 -3.68147e-12 7.75147e-07)
(0.000852996 -2.15005e-07 -0.00032768 0.000732387 1.48036e-07 0.000608346)
(0.000853789 -6.29808e-07 -0.000327964 0.00073281 4.4278e-07 0.000608472)
(0.00085523 -1.00548e-06 -0.000328478 0.00073357 7.29674e-07 0.000608685)
(0.000857136 -1.32155e-06 -0.000329157 0.000734563 1.01059e-06 0.000608955)
(0.000859263 -1.55918e-06 -0.000329914 0.000735637 1.2937e-06 0.000609212)
(0.000861346 -1.70644e-06 -0.000330651 0.000736622 1.58179e-06 0.000609375)
(0.000863118 -1.75626e-06 -0.000331272 0.000737345 1.87531e-06 0.00060935)
(0.000864324 -1.70781e-06 -0.000331683 0.000737636 2.17192e-06 0.000609043)
(0.000864737 -1.56722e-06 -0.0003318 0.000737342 2.4666e-06 0.000608364)
(0.000864183 -1.34737e-06 -0.000331558 0.000736342 2.75201e-06 0.000607235)
(0.000862547 -1.06631e-06 -0.000330916 0.000734555 3.01948e-06 0.000605602)
(0.000859783 -7.4468e-07 -0.000329854 0.000731947 3.2602e-06 0.000603437)
(0.000855905 -4.03297e-07 -0.000328378 0.000728526 3.46631e-06 0.000600743)
(0.000850988 -6.08052e-08 -0.000326516 0.000724345 3.63245e-06 0.000597552)
(0.000845151 2.71895e-07 -0.000324312 0.000719491 3.75693e-06 0.000593926)
(0.00083853 5.92104e-07 -0.000321818 0.000714065 3.84211e-06 0.000589943)
(0.000831265 9.05829e-07 -0.000319089 0.000708177 3.89413e-06 0.000585693)
(0.00082348 1.22841e-06 -0.00031617 0.000701927 3.92293e-06 0.000581267)
(0.000815275 1.5852e-06 -0.000313104 0.000695406 3.94168e-06 0.000576759)
(0.000806712 2.01067e-06 -0.000309915 0.00068868 3.96658e-06 0.000572246)
(0.000797856 2.54588e-06 -0.000306625 0.000681785 4.01513e-06 0.000567757)
(0.000788615 3.23685e-06 -0.000303203 0.000674682 4.10412e-06 0.000563302)
(0.000778802 4.1324e-06 -0.000299578 0.000667261 4.24921e-06 0.000558855)
(0.000768193 5.2817e-06 -0.000295665 0.000659374 4.46255e-06 0.000554338)
(0.000756517 6.72852e-06 -0.000291356 0.000650826 4.75079e-06 0.000549631)
(0.000743452 8.50795e-06 -0.000286519 0.000641373 5.11138e-06 0.000544567)
(0.000728632 1.064e-05 -0.000281004 0.000630722 5.52954e-06 0.000538933)
(0.000711656 1.31289e-05 -0.000274642 0.000618545 5.98071e-06 0.000532478)
(0.000692107 1.59931e-05 -0.000267245 0.000604509 6.46326e-06 0.000524898)
(0.000669525 1.92435e-05 -0.000258599 0.00058825 6.96634e-06 0.000515805)
(0.000643743 2.28794e-05 -0.000248598 0.000569569 7.44678e-06 0.000504984)
(0.000614641 2.68947e-05 -0.000237139 0.000548211 7.86268e-06 0.000492137)
(0.000581998 3.12385e-05 -0.000224064 0.000523815 8.14087e-06 0.000476765)
(0.000545521 3.57837e-05 -0.000209185 0.000495921 8.17645e-06 0.000458184)
(0.000504857 4.02863e-05 -0.000192301 0.000463978 7.85452e-06 0.000435542)
(0.000459613 4.43396e-05 -0.000173232 0.000427396 7.06822e-06 0.000407868)
(0.00040942 4.7351e-05 -0.000151889 0.000385661 5.74561e-06 0.000374199)
(0.000354112 4.85694e-05 -0.000128377 0.000338539 3.88181e-06 0.000333812)
(0.000294058 4.71983e-05 -0.000103142 0.000286414 1.56854e-06 0.000286555)
(0.000230657 4.25922e-05 -7.71313e-05 0.000230616 -8.80582e-07 0.000233281)
(0.000167091 3.46209e-05 -5.19517e-05 0.000173542 -2.83405e-06 0.000176468)
(0.000109062 2.42391e-05 -2.99554e-05 0.000118932 -3.60865e-06 0.000120575)
(6.30049e-05 1.36293e-05 -1.36293e-05 7.14013e-05 -2.77105e-06 7.14013e-05)
(3.16901e-05 5.52903e-06 -4.3251e-06 3.54119e-05 -1.08748e-06 3.48754e-05)
(1.28716e-05 1.41013e-06 -8.18391e-07 1.35686e-05 -1.67774e-07 1.33807e-05)
(3.60269e-06 1.89915e-07 -7.50323e-08 3.64867e-06 -8.1601e-09 3.63219e-06)
(6.55199e-07 1.16267e-08 -2.62536e-09 6.56094e-07 -1.08921e-10 6.55755e-07)
(1.14896e-06 3.52836e-09 -2.53903e-10 1.149e-06 -1.14798e-11 1.14899e-06)
(0.00120842 -3.58941e-07 -0.000458314 0.000987563 6.40494e-08 0.000762761)
(0.00120878 -1.04766e-06 -0.00045848 0.000987861 1.95185e-07 0.000763118)
(0.00120942 -1.66139e-06 -0.000458762 0.000988387 3.37655e-07 0.000763697)
(0.00121022 -2.16202e-06 -0.000459122 0.000989042 5.07506e-07 0.000764449)
(0.00121102 -2.51515e-06 -0.000459493 0.000989686 7.18567e-07 0.000765251)
(0.00121163 -2.70007e-06 -0.0004598 0.000990158 9.76804e-07 0.000765966)
(0.00121184 -2.70619e-06 -0.000459963 0.000990292 1.28239e-06 0.000766451)
(0.00121145 -2.53472e-06 -0.000459901 0.00098992 1.62922e-06 0.000766566)
(0.00121028 -2.19932e-06 -0.000459541 0.000988892 2.00565e-06 0.000766181)
(0.00120817 -1.72515e-06 -0.000458823 0.000987085 2.39544e-06 0.000765191)
(0.00120503 -1.14548e-06 -0.000457704 0.000984416 2.78007e-06 0.000763523)
(0.00120079 -4.96917e-07 -0.000456165 0.000980844 3.14098e-06 0.00076114)
(0.00119546 1.8502e-07 -0.000454206 0.000976373 3.46175e-06 0.000758043)
(0.0011891 8.70068e-07 -0.000451848 0.000971048 3.73108e-06 0.000754267)
(0.00118182 1.54243e-06 -0.000449131 0.000964952 3.94496e-06 0.000749883)
(0.00117373 2.20152e-06 -0.000446105 0.000958182 4.1077e-06 0.000744972)
(0.00116498 2.86281e-06 -0.000442826 0.000950846 4.23148e-06 0.00073963)
(0.00115572 3.55864e-06 -0.000439344 0.00094305 4.33675e-06 0.000733947)
(0.00114606 4.33928e-06 -0.000435711 0.000934889 4.45107e-06 0.000728007)
(0.00113612 5.27034e-06 -0.000431964 0.000926435 4.60862e-06 0.000721877)
(0.00112596 6.42983e-06 -0.000428124 0.000917728 4.84824e-06 0.000715606)
(0.00111554 7.90431e-06 -0.000424177 0.000908734 5.21194e-06 0.000709169)
(0.00110477 9.78546e-06 -0.000420077 0.000899357 5.74245e-06 0.000702499)
(0.00109349 1.21677e-05 -0.000415752 0.000889452 6.48042e-06 0.000695488)
(0.00108147 1.5138e-05 -0.0004111 0.00087882 7.4642e-06 0.000687992)
(0.00106842 1.87721e-05 -0.000405989 0.000867199 8.72597e-06 0.000679831)
(0.00105396 2.31253e-05 -0.000400254 0.00085426 1.02916e-05 0.000670786)
(0.00103765 2.82271e-05 -0.000393698 0.000839598 1.21862e-05 0.000660602)
(0.00101898 3.41083e-05 -0.000386069 0.000822838 1.4444e-05 0.000648935)
(0.000992761 4.06913e-05 -0.000375905 0.000803544 1.66858e-05 0.000639258)
(0.000960894 4.80433e-05 -0.000363566 0.000781426 1.89233e-05 0.000629522)
(0.000925281 5.61831e-05 -0.000349408 0.000756049 2.12534e-05 0.0006176)
(0.000885659 6.49868e-05 -0.000333187 0.00072685 2.35969e-05 0.000602799)
(0.000841598 7.42039e-05 -0.000314591 0.000693109 2.58519e-05 0.000584184)
(0.000792405 8.33767e-05 -0.000293245 0.000653917 2.7877e-05 0.000560647)
(0.000736992 9.1765e-05 -0.000268724 0.000608233 2.94512e-05 0.000531008)
(0.000673756 9.82913e-05 -0.000240595 0.000555028 3.0196e-05 0.000494178)
(0.000600615 0.000101538 -0.000208534 0.00049355 2.94805e-05 0.000449358)
(0.000515432 9.98925e-05 -0.000172541 0.000423976 2.63607e-05 0.00039621)
(0.000417156 9.18465e-05 -0.00013325 0.000348148 2.00411e-05 0.000334773)
(0.000307656 7.62426e-05 -9.23805e-05 0.000269395 1.07997e-05 0.000265923)
(0.000197787 5.39817e-05 -5.39817e-05 0.000192256 9.71877e-07 0.000192256)
(0.000109062 2.99554e-05 -2.4239e-05 0.000120575 -3.60866e-06 0.000118932)
(5.30083e-05 1.1687e-05 -7.39175e-06 6.0751e-05 -2.01963e-06 5.88046e-05)
(2.13357e-05 2.85445e-06 -1.3374e-06 2.29028e-05 -3.25738e-07 2.23634e-05)
(5.92396e-06 3.73437e-07 -1.19159e-07 6.02896e-06 -1.59006e-08 5.98641e-06)
(1.03241e-06 2.17434e-08 -3.9756e-09 1.0344e-06 -2.21642e-10 1.03357e-06)
(1.6013e-06 5.80804e-09 -3.39759e-10 1.60138e-06 -2.73979e-11 1.60135e-06)
(0.00145067 -4.80695e-07 -0.000550411 0.00119043 -7.20518e-08 0.000916906)
(0.00145081 -1.39837e-06 -0.000550495 0.00119053 -2.09277e-07 0.000917133)
(0.00145103 -2.20229e-06 -0.000550632 0.00119069 -3.12038e-07 0.000917505)
(0.00145125 -2.83389e-06 -0.00055079 0.00119084 -3.48226e-07 0.000917965)
(0.00145132 -3.24141e-06 -0.000550912 0.00119085 -3.01481e-07 0.00091841)
(0.0014511 -3.39421e-06 -0.000550936 0.00119059 -1.6306e-07 0.000918722)
(0.00145041 -3.27805e-06 -0.000550793 0.00118993 6.67522e-08 0.000918777)
(0.00144907 -2.89706e-06 -0.00055041 0.00118871 3.78242e-07 0.000918447)
(0.00144691 -2.27403e-06 -0.000549721 0.0011868 7.5355e-07 0.000917616)
(0.00144379 -1.44823e-06 -0.000548668 0.00118409 1.16829e-06 0.000916183)
(0.00143961 -4.6986e-07 -0.000547211 0.0011805 1.59503e-06 0.000914076)
(0.00143432 6.0755e-07 -0.000545327 0.00117599 2.00658e-06 0.000911254)
(0.00142791 1.73403e-06 -0.000543011 0.00117056 2.37916e-06 0.000907709)
(0.00142042 2.86939e-06 -0.00054028 0.00116423 2.69711e-06 0.000903466)
(0.00141195 3.9961e-06 -0.000537169 0.00115708 2.95489e-06 0.000898583)
(0.00140261 5.12032e-06 -0.00053372 0.00114919 3.15906e-06 0.00089313)
(0.00139253 6.2729e-06 -0.000529986 0.00114065 3.32743e-06 0.000887198)
(0.00138185 7.50988e-06 -0.000526017 0.00113157 3.48962e-06 0.000880873)
(0.0013707 8.91286e-06 -0.000521864 0.00112203 3.68449e-06 0.000874246)
(0.00135921 1.05838e-05 -0.000517566 0.0011121 3.96017e-06 0.000867392)
(0.00134744 1.26439e-05 -0.000513149 0.00110184 4.37127e-06 0.000860373)
(0.0013354 1.52259e-05 -0.000508603 0.00109123 4.97651e-06 0.000853186)
(0.00132302 1.84669e-05 -0.000503889 0.00108017 5.83495e-06 0.000845799)
(0.00131018 2.25054e-05 -0.000498941 0.00106856 7.00224e-06 0.00083814)
(0.00129668 2.74683e-05 -0.000493656 0.0010562 8.53327e-06 0.000830106)
(0.00128226 3.34655e-05 -0.000487893 0.00104285 1.04771e-05 0.000821555)
(0.00126656 4.05784e-05 -0.000481468 0.00102817 1.2881e-05 0.000812302)
(0.00124914 4.88468e-05 -0.000474146 0.00101179 1.58011e-05 0.00080211)
(0.00122948 5.82591e-05 -0.000465648 0.000993287 1.9247e-05 0.000790687)
(0.00120701 6.89196e-05 -0.000455627 0.00097226 2.32425e-05 0.000777686)
(0.00118123 8.09382e-05 -0.000443762 0.000948201 2.78091e-05 0.000763016)
(0.00115151 9.41762e-05 -0.000429687 0.000920494 3.2864e-05 0.000746543)
(0.001117 0.000108312 -0.000412922 0.000888404 3.82525e-05 0.000727895)
(0.00107652 0.000122823 -0.000392896 0.000851032 4.37124e-05 0.000706447)
(0.00102863 0.000136897 -0.000368997 0.000807306 4.88204e-05 0.000681233)
(0.000971547 0.000149397 -0.000340648 0.000756016 5.29885e-05 0.000650865)
(0.000903278 0.000158853 -0.000307409 0.000695861 5.55155e-05 0.000613474)
(0.000821753 0.00016349 -0.000269127 0.000625461 5.57125e-05 0.000566771)
(0.000725276 0.00016136 -0.000226187 0.000543788 5.29663e-05 0.000508308)
(0.000613214 0.000150952 -0.000179624 0.000451588 4.70349e-05 0.000436164)
(0.000472707 0.000128432 -0.000128432 0.000356037 3.30529e-05 0.000356037)
(0.000307656 9.23805e-05 -7.62425e-05 0.000265923 1.07997e-05 0.000269395)
(0.000167091 5.19517e-05 -3.46209e-05 0.000176468 -2.83405e-06 0.000173542)
(7.93574e-05 2.03788e-05 -1.06064e-05 9.21406e-05 -2.90232e-06 8.78372e-05)
(3.18068e-05 4.97163e-06 -1.91332e-06 3.47674e-05 -5.23243e-07 3.35769e-05)
(8.83244e-06 6.47126e-07 -1.69511e-07 9.04079e-06 -2.65689e-08 8.94772e-06)
(1.50172e-06 3.66295e-08 -5.50804e-09 1.50567e-06 -3.81742e-10 1.50386e-06)
(2.13065e-06 8.91616e-09 -4.30284e-10 2.13081e-06 -4.99427e-11 2.13074e-06)
(0.00163856 -6.16063e-07 -0.000621683 0.00134716 -2.57914e-07 0.00103557)
(0.00163841 -1.7881e-06 -0.000621664 0.00134702 -7.51025e-07 0.00103563)
(0.0016381 -2.79887e-06 -0.000621622 0.0013467 -1.17529e-06 0.00103577)
(0.00163757 -3.56428e-06 -0.00062153 0.00134618 -1.49049e-06 0.0010359)
(0.00163674 -4.01438e-06 -0.00062135 0.00134538 -1.6727e-06 0.00103595)
(0.00163549 -4.1078e-06 -0.000621035 0.0013442 -1.71021e-06 0.00103582)