/*--------------------------------*- C++ -*----------------------------------*\
| =========                 |                                                 |
| \\      /  F ield         | OpenFOAM: The Open Source CFD Toolbox           |
|  \\    /   O peration     | Version:  2412                                  |
|   \\  /    A nd           | Website:  www.openfoam.com                      |
|    \\/     M anipulation  |                                                 |
\*---------------------------------------------------------------------------*/
FoamFile
{
    version     2.0;
    format      ascii;
    arch        "LSB;label=32;scalar=64";
    class       volSymmTensorField;
    location    "1830";
    object      Sij;
}
// * * * * * * * * * * * * * * * * * * * * * * * * * * * * * * * * * * * * * //

dimensions      [0 0 -1 0 0 0 0];

internalField   nonuniform List<symmTensor> 
2304
(
(-5.68666e-17 0.000211391 7.54861 -0.00297458 -0.0117663 0.00933053)
(0 0.000616116 7.55549 -0.00293479 -0.0346213 0.00929568)
(0 0.00097449 7.56808 -0.00285822 -0.0560503 0.00920658)
(-6.51078e-17 0.00125576 7.58502 -0.00274438 -0.0758686 0.00907204)
(-6.81122e-17 0.0014299 7.60452 -0.00260004 -0.0939387 0.00890536)
(-7.12552e-17 0.00147968 7.62472 -0.00243376 -0.110221 0.00871207)
(-7.45433e-17 0.00139535 7.64383 -0.00225327 -0.124717 0.00850325)
(-7.79831e-17 0.00117706 7.66019 -0.00206784 -0.137497 0.00828741)
(0 0.000835414 7.67246 -0.00188611 -0.14867 0.00807516)
(-8.53462e-17 0.000391487 7.67965 -0.00171626 -0.158392 0.00787454)
(0 -0.000125911 7.68123 -0.0015644 -0.166836 0.0076922)
(0 -0.000683695 7.67707 -0.00143347 -0.174186 0.00753107)
(9.77147e-17 -0.00124812 7.66745 -0.0013238 -0.180611 0.00739026)
(1.53336e-16 -0.00178786 7.65295 -0.00123076 -0.186265 0.00726636)
(-5.34705e-17 -0.00228367 7.63437 -0.00114448 -0.191245 0.00714487)
(0 -0.0027288 7.61253 -0.00105311 -0.195605 0.00701669)
(0 -0.0031301 7.58817 -0.000942022 -0.19934 0.0068614)
(0 -0.00350965 7.56185 -0.000794517 -0.202399 0.00666569)
(-1.28089e-16 -0.00390657 7.53384 -0.000592332 -0.204678 0.00640465)
(0 -0.00437678 7.50403 -0.000319532 -0.206035 0.00606558)
(0 -0.00499355 7.47192 3.59914e-05 -0.206308 0.00563121)
(0 -0.00584481 7.43651 0.000484461 -0.205331 0.00509445)
(-7.67095e-17 -0.00702516 7.39641 0.00103471 -0.202941 0.00444034)
(-8.02492e-17 -0.00863529 7.34981 0.00168565 -0.198987 0.0036709)
(0 -0.010774 7.29459 0.00242174 -0.19337 0.00280044)
(0 -0.0135258 7.22843 0.00320989 -0.186064 0.00185986)
(0 -0.0169343 7.14898 0.00400013 -0.177153 0.000904006)
(9.61188e-17 -0.0209847 7.05419 0.00474427 -0.16683 -2.99736e-05)
(0 -0.025667 6.94259 0.00555882 -0.155366 -0.00100459)
(0 -0.0311983 6.81289 0.00666447 -0.142502 -0.0024164)
(-5.50242e-17 -0.0379208 6.66228 0.00802655 -0.127732 -0.00413708)
(0 -0.0460472 6.48729 0.00946009 -0.111035 -0.00595907)
(-1.20439e-16 -0.0557408 6.28443 0.0108535 -0.0926204 -0.0077844)
(0 -0.0671589 6.05018 0.0120723 -0.0728251 -0.00946912)
(6.59055e-17 -0.0803602 5.78112 0.012878 -0.0522243 -0.0107569)
(-6.89467e-17 -0.0951777 5.47451 0.0129259 -0.031748 -0.0112717)
(-3.60641e-17 -0.111105 5.12922 0.0118204 -0.0127415 -0.010575)
(3.77283e-17 -0.127251 4.7467 0.0092617 0.00310678 -0.00831707)
(-3.94693e-17 -0.142448 4.33173 0.00527862 0.0140677 -0.00450114)
(0 -0.155585 3.89244 0.000528862 0.0189044 0.000240507)
(-4.31959e-17 -0.166128 3.43899 -0.00355612 0.0177067 0.0044142)
(0 -0.174474 2.98075 -0.00551233 0.0126441 0.00626697)
(4.72745e-17 -0.18166 2.52372 -0.00511606 0.00696217 0.00558061)
(2.4728e-17 -0.188773 2.07024 -0.00344026 0.00283856 0.00365466)
(0 -0.196819 1.6201 -0.00171236 0.000698376 0.00178793)
(1.35314e-17 -0.207186 1.17113 -0.000567548 -1.81533e-05 0.000577492)
(1.41558e-17 -0.223018 0.718759 -7.70908e-05 -6.54393e-05 7.87394e-05)
(3.70225e-18 -0.253968 0.253968 1.5329e-05 -1.01156e-06 1.5323e-05)
(0 0.000642418 7.45059 -0.00840507 -0.0103805 -0.00791218)
(0 0.00187254 7.45737 -0.0082962 -0.0305459 -0.00821927)
(0 0.00296168 7.46978 -0.00808366 -0.0494612 -0.00848574)
(0 0.00381614 7.48648 -0.00776894 -0.066981 -0.00888422)
(0 0.00434483 7.50568 -0.00737075 -0.0829926 -0.00937866)
(-2.72449e-16 0.00449535 7.52558 -0.00691068 -0.0974592 -0.00993706)
(0 0.00423807 7.54437 -0.00640894 -0.110378 -0.0105216)
(-2.98173e-16 0.00357346 7.56045 -0.00588963 -0.121798 -0.0110971)
(0 0.00253376 7.57247 -0.00537539 -0.131801 -0.0116284)
(0 0.00118299 7.57949 -0.0048876 -0.140502 -0.0120868)
(-1.70692e-16 -0.00039128 7.58095 -0.00444226 -0.148037 -0.0124511)
(0 -0.0020886 7.57674 -0.00404723 -0.154545 -0.012712)
(-5.60427e-16 -0.00380644 7.56713 -0.00370332 -0.16016 -0.0128709)
(0 -0.00544972 7.55269 -0.00339858 -0.165003 -0.0129411)
(0 -0.00696003 7.5342 -0.00310779 -0.169155 -0.0129572)
(0 -0.00831702 7.51245 -0.00280021 -0.172665 -0.0129502)
(0 -0.0095416 7.48817 -0.00243819 -0.175539 -0.012968)
(0 -0.0107009 7.4619 -0.00197896 -0.177748 -0.0130506)
(0 -0.0119138 7.4339 -0.00137667 -0.179229 -0.0132515)
(2.56178e-16 -0.0133495 7.40406 -0.000590715 -0.179886 -0.0136056)
(0 -0.0152305 7.37188 0.000410512 -0.179614 -0.0141487)
(2.80366e-16 -0.0178244 7.33638 0.00165175 -0.178296 -0.0148947)
(0 -0.0214179 7.29618 0.0031514 -0.175829 -0.0158569)
(0 -0.0263157 7.24952 0.00490403 -0.172115 -0.0170169)
(-1.60498e-16 -0.0328174 7.19432 0.00687107 -0.167097 -0.0183266)
(-3.35809e-16 -0.041181 7.12833 0.00897608 -0.160756 -0.0197031)
(0 -0.0515421 7.04923 0.0111071 -0.15314 -0.0210204)
(0 -0.0638573 6.95496 0.0131587 -0.144386 -0.0221836)
(0 -0.0780901 6.84403 0.0153743 -0.134754 -0.0233408)
(0 -0.0948954 6.71512 0.0182089 -0.124137 -0.0251348)
(-2.10389e-16 -0.115309 6.5655 0.0215751 -0.112232 -0.0273709)
(0 -0.139966 6.39184 0.0250665 -0.0990907 -0.0296536)
(-2.30253e-16 -0.169361 6.1908 0.0284203 -0.084888 -0.0317729)
(0 -0.203985 5.95895 0.0313127 -0.0698107 -0.0334435)
(0 -0.244046 5.6929 0.0331933 -0.054146 -0.0341717)
(0 -0.289084 5.38985 0.0332867 -0.0383676 -0.0332524)
(-1.37893e-16 -0.337625 5.04837 0.030717 -0.0232153 -0.0298876)
(0 -0.387012 4.66941 0.0248202 -0.00974894 -0.0234781)
(0 -0.433679 4.2571 0.0156271 0.000702166 -0.0141151)
(0 -0.474105 3.81911 0.0045236 0.00672147 -0.00313326)
(0 -0.506448 3.36567 -0.00531434 0.0075728 0.00643957)
(0 -0.531793 2.90689 -0.0104812 0.0046635 0.0111048)
(0 -0.553308 2.44963 -0.0102896 0.00103468 0.0103783)
(0 -0.574288 1.99692 -0.00703546 -0.00118109 0.00687572)
(0 -0.597497 1.54924 -0.00346192 -0.00171208 0.00330278)
(0 -0.625904 1.10552 -0.00104636 -0.00123072 0.000943889)
(2.70628e-17 -0.663898 0.663898 -2.80045e-05 -0.000501305 -2.80102e-05)
(-7.0779e-18 -0.718759 0.223018 7.87514e-05 -6.5434e-05 -7.70928e-05)
(-4.15684e-16 0.00108228 7.25522 -0.0133503 -0.00882659 -0.0158298)
(0 0.00315429 7.26159 -0.0131787 -0.0259467 -0.0161083)
(0 0.00498762 7.27323 -0.0128478 -0.0420036 -0.01638)
(0 0.00642464 7.28887 -0.0123607 -0.0569233 -0.0167978)
(0 0.0073122 7.30683 -0.0117434 -0.0706022 -0.0173344)
(0 0.00756207 7.32541 -0.011028 -0.0830077 -0.0179649)
(0 0.00712468 7.34293 -0.0102438 -0.0941311 -0.0186594)
(2.85021e-16 0.00600087 7.35788 -0.00942604 -0.103999 -0.0193873)
(0 0.00424498 7.36903 -0.00860785 -0.112664 -0.0201161)
(0 0.00196468 7.37548 -0.00782068 -0.1202 -0.0208163)
(3.26327e-16 -0.000692903 7.37672 -0.00708814 -0.126697 -0.0214639)
(0 -0.00355929 7.37265 -0.00642212 -0.132254 -0.0220455)
(7.14276e-16 -0.00646265 7.3635 -0.00582417 -0.136964 -0.0225582)
(0 -0.00924386 7.34979 -0.00527734 -0.140917 -0.0230128)
(0 -0.0118056 7.33222 -0.00474564 -0.144179 -0.0234459)
(-4.08895e-16 -0.0141146 7.3115 -0.00418481 -0.146796 -0.0238925)
(0 -0.0162069 7.28828 -0.00354079 -0.148786 -0.0244093)
(4.47503e-16 -0.0181963 7.26302 -0.00275262 -0.150148 -0.0250476)
(4.68153e-16 -0.020283 7.23592 -0.00175603 -0.150858 -0.0258765)
(0 -0.0227503 7.20685 -0.000492917 -0.150877 -0.0269463)
(0 -0.0259721 7.1753 0.00108355 -0.150152 -0.0283016)
(0 -0.0303985 7.14034 0.00300676 -0.14862 -0.0299681)
(0 -0.0365087 7.1007 0.00529768 -0.146231 -0.0319756)
(-2.93303e-16 -0.044811 7.05473 0.00794628 -0.14294 -0.034307)
(0 -0.0558055 7.00055 0.0109019 -0.138718 -0.0369081)
(-3.20997e-16 -0.0699296 6.93608 0.0140691 -0.133544 -0.0396799)
(-3.35809e-16 -0.0874297 6.85921 0.0173055 -0.127419 -0.0424619)
(0 -0.108261 6.76794 0.0204487 -0.120438 -0.0451009)
(3.67516e-16 -0.13237 6.66063 0.0237688 -0.112933 -0.0476967)
(0 -0.160825 6.53582 0.0278247 -0.104924 -0.0509265)
(0 -0.195319 6.39101 0.0324917 -0.0962022 -0.0545479)
(0 -0.236892 6.22328 0.0372564 -0.086874 -0.0580798)
(4.40194e-16 -0.286381 6.02966 0.0418085 -0.0770588 -0.0612433)
(0 -0.344651 5.80701 0.0457611 -0.0667237 -0.0636361)
(0 -0.412139 5.55213 0.0484402 -0.0557728 -0.064568)
(0 -0.488227 5.26213 0.0488818 -0.0441389 -0.0630478)
(0 -0.570655 4.93506 0.0459487 -0.0319321 -0.0579025)
(2.75787e-16 -0.655169 4.57068 0.0386584 -0.0196919 -0.0481144)
(0 -0.735797 4.17143 0.0267022 -0.0086634 -0.0334609)
(0 -0.806196 3.74315 0.0114117 -0.0010648 -0.0154129)
(0 -0.862474 3.2953 -0.00298803 0.000849615 0.00156631)
(0 -0.905884 2.83904 -0.0111944 -0.00200557 0.0112194)
(-8.63919e-17 -0.941683 2.3831 -0.0116818 -0.00552303 0.0119084)
(0 -0.975453 1.93243 -0.00761705 -0.00671917 0.00764867)
(0 -1.01153 1.48914 -0.00301851 -0.00554751 0.00295195)
(0 -1.05363 1.05363 -4.87989e-05 -0.00332141 -4.88005e-05)
(0 -1.10552 0.625904 0.000943897 -0.00123072 -0.00104636)
(0 -1.17113 0.207186 0.000577506 -1.8147e-05 -0.000567547)
(0 0.00149717 6.76913 -0.0176098 -0.00692377 0.0475381)
(0 0.0043616 6.7745 -0.017383 -0.0203563 0.0477415)
(0 0.00689193 6.78428 -0.0169578 -0.0329716 0.0476237)
(0 0.00887168 6.79737 -0.0163367 -0.0447349 0.0474249)
(0 0.0100904 6.81237 -0.0155468 -0.0555742 0.0471334)
(-9.95775e-16 0.0104272 6.82785 -0.0146277 -0.0654628 0.046732)
(5.20862e-16 0.00981504 6.84241 -0.0136143 -0.0743869 0.0462098)
(5.44898e-16 0.00825612 6.85482 -0.012548 -0.0823507 0.0455626)
(0 0.00582625 6.86407 -0.0114685 -0.0893724 0.0447953)
(0 0.00267367 6.86943 -0.0104133 -0.0954852 0.0439188)
(0 -0.000999833 6.87051 -0.0094111 -0.100733 0.0429467)
(0 -0.00496436 6.86721 -0.0084766 -0.105167 0.0418895)
(0 -0.0089864 6.85971 -0.0076127 -0.108842 0.0407532)
(0 -0.0128512 6.8484 -0.00680045 -0.111815 0.0395328)
(0 -0.0164289 6.83381 -0.00599862 -0.114134 0.0381984)
(0 -0.019678 6.81644 -0.0051561 -0.115843 0.0367198)
(0 -0.0226527 6.79674 -0.00421052 -0.116973 0.0350416)
(0 -0.025514 6.77498 -0.00309234 -0.11755 0.0331091)
(0 -0.0285411 6.75125 -0.00172989 -0.117592 0.0308447)
(0 -0.032127 6.7253 -5.59222e-05 -0.117115 0.0281856)
(9.79511e-16 -0.0367867 6.69663 0.00198811 -0.116118 0.0250693)
(0 -0.0431302 6.66442 0.00443825 -0.114593 0.0214431)
(0 -0.0518079 6.6276 0.00731043 -0.112542 0.0172475)
(0 -0.0635112 6.58485 0.0105913 -0.109968 0.012464)
(0 -0.0789168 6.53469 0.0142319 -0.106869 0.00710616)
(0 -0.0986279 6.4755 0.0181469 -0.103219 0.00122391)
(0 -0.123029 6.40563 0.0221973 -0.0989708 -0.00506691)
(-6.71619e-16 -0.152168 6.3234 0.0261555 -0.0941521 -0.0116015)
(0 -0.186069 6.22704 0.0302079 -0.0891114 -0.0182897)
(0 -0.226103 6.11473 0.0348906 -0.0840166 -0.0254081)
(-3.84475e-16 -0.274414 5.98456 0.0400689 -0.0788278 -0.0328585)
(0 -0.332395 5.83447 0.0452549 -0.0736924 -0.0404182)
(4.20777e-16 -0.401245 5.66221 0.0502221 -0.068631 -0.0479255)
(0 -0.482244 5.46528 0.0546793 -0.0633581 -0.0550286)
(4.60507e-16 -0.57617 5.24097 0.0580473 -0.0573514 -0.061063)
(0 -0.682533 4.98653 0.059433 -0.049927 -0.0650044)
(0 -0.798792 4.69933 0.0576413 -0.0404391 -0.0654628)
(0 -0.919764 4.37723 0.0513383 -0.0287341 -0.0607924)
(0 -1.0376 4.01923 0.0393167 -0.0158417 -0.0494814)
(0 -1.14292 3.62666 0.021727 -0.00515622 -0.0311139)
(0 -1.22836 3.20519 0.00320428 -0.00168101 -0.00962824)
(1.57877e-16 -1.29369 2.76548 -0.00843967 -0.0056415 0.00532772)
(0 -1.3454 2.31896 -0.00999547 -0.0109147 0.00882944)
(1.72784e-16 -1.3913 1.87444 -0.00533051 -0.0123636 0.00499386)
(0 -1.43764 1.43764 -2.24068e-05 -0.00976668 -2.24057e-05)
(0 -1.48914 1.01153 0.00295195 -0.00554751 -0.00301851)
(0 -1.54924 0.597497 0.00330279 -0.00171208 -0.00346191)
(0 -1.6201 0.196819 0.00178795 0.000698383 -0.00171236)
(0 0.00183464 5.89603 -0.0208886 -0.00479827 0.0760627)
(-7.94697e-16 0.00534117 5.90001 -0.0206274 -0.0141754 0.0760681)
(0 0.00843007 5.90724 -0.0201386 -0.0230322 0.0753769)
(0 0.0108395 5.91684 -0.0194284 -0.0312995 0.0744097)
(0 0.0123167 5.92778 -0.0185246 -0.0389677 0.0732208)
(9.51852e-16 0.0127167 5.93902 -0.0174678 -0.0460142 0.0718582)
(0 0.0119617 5.94956 -0.0162938 -0.0524177 0.0703732)
(0 0.010058 5.95854 -0.0150456 -0.0581611 0.0688182)
(0 0.00710038 5.96526 -0.0137646 -0.0632337 0.067245)
(0 0.0032694 5.96926 -0.0124909 -0.0676329 0.0656986)
(0 -0.00119197 5.97026 -0.0112552 -0.0713657 0.0642121)
(0 -0.00600986 5.96821 -0.0100744 -0.0744475 0.062801)
(6.52653e-16 -0.010909 5.96321 -0.00895324 -0.0769007 0.0614642)
(0 -0.0156405 5.95548 -0.0078741 -0.0787599 0.0601805)
(7.14276e-16 -0.0200583 5.9453 -0.00679613 -0.0800602 0.0588962)
(0 -0.0241238 5.93289 -0.00566826 -0.0808412 0.0575593)
(0 -0.027915 5.91842 -0.00442823 -0.0811441 0.0560954)
(1.63558e-15 -0.0316391 5.90193 -0.00300738 -0.0810134 0.0544401)
(8.55527e-16 -0.0356462 5.88329 -0.00133787 -0.0804924 0.0525164)
(0 -0.0404267 5.86218 0.000648318 -0.0796274 0.0502665)
(9.36306e-16 -0.0465976 5.83807 0.00301774 -0.0784538 0.0475926)
(0 -0.0548731 5.81032 0.00580301 -0.0770015 0.0444857)
(-1.02471e-15 -0.066026 5.77817 0.00900793 -0.0753067 0.040955)
(1.072e-15 -0.0808735 5.74073 0.0126159 -0.0733963 0.0370245)
(5.60732e-16 -0.100206 5.69707 0.0165899 -0.0712874 0.0327374)
(5.86607e-16 -0.124741 5.64624 0.0208775 -0.0689567 0.0281443)
(-6.13676e-16 -0.155001 5.58729 0.025389 -0.0663332 0.0233288)
(0 -0.191246 5.51911 0.0298824 -0.0633406 0.0184173)
(0 -0.233797 5.44024 0.0343273 -0.0600312 0.0134736)
(0 -0.284123 5.34843 0.0389606 -0.0567903 0.00668442)
(7.35032e-16 -0.344381 5.24279 0.0436689 -0.0542038 -0.000966076)
(0 -0.416224 5.12255 0.048229 -0.0524438 -0.0085842)
(-8.04434e-16 -0.501227 4.9865 0.0526182 -0.051365 -0.0161032)
(0 -0.601067 4.83318 0.0567629 -0.0505587 -0.0233595)
(0 -0.716972 4.6609 0.0604192 -0.0493042 -0.03011)
(9.21013e-16 -0.848991 4.46756 0.0631234 -0.0465564 -0.0360445)
(0 -0.995201 4.25035 0.0640375 -0.0410499 -0.0406896)
(0 -1.15094 4.00542 0.0617648 -0.0316908 -0.0431389)
(0 -1.30827 3.72788 0.0537715 -0.0183501 -0.0415584)
(0 -1.45584 3.41243 0.0372682 -0.00454199 -0.0326583)
(2.88513e-16 -1.58153 3.05617 0.0155748 0.00138244 -0.0159457)
(3.01826e-16 -1.68004 2.66372 -0.000783819 -0.00345656 -0.00157045)
(-3.15754e-16 -1.75597 2.24645 -0.00521355 -0.0116088 0.00250503)
(-1.65162e-16 -1.81797 1.81797 -0.000831436 -0.0150693 -0.000831431)
(0 -1.87444 1.3913 0.00499386 -0.0123636 -0.0053305)
(0 -1.93243 0.975452 0.00764867 -0.00671917 -0.00761704)
(4.72745e-17 -1.99692 0.574288 0.00687573 -0.00118109 -0.00703546)
(0 -2.07024 0.188773 0.00365468 0.00283857 -0.00344026)
(0 0.0020801 4.8474 -0.0230902 -0.00296784 0.0045818)
(0 0.00605204 4.85029 -0.0228191 -0.00881638 0.00400917)
(-7.94697e-16 0.00953786 4.85554 -0.0222948 -0.0143738 0.00306066)
(0 0.0122445 4.86243 -0.0215325 -0.0195581 0.00172289)
(0 0.0138954 4.87022 -0.0205639 -0.0243819 8.82872e-05)
(0 0.0143316 4.87817 -0.0194236 -0.0288205 -0.00175431)
(9.51852e-16 0.013472 4.8856 -0.0181445 -0.0328446 -0.00371459)
(0 0.0113299 4.89195 -0.0167681 -0.036423 -0.00570468)
(1.04172e-15 0.00801598 4.89677 -0.0153353 -0.0395289 -0.00764371)
(-1.0898e-15 0.00373348 4.89978 -0.0138867 -0.0421421 -0.00946405)
(-5.70042e-16 -0.00124921 4.90083 -0.0124547 -0.0442533 -0.0111173)
(0 -0.00663436 4.89988 -0.0110581 -0.0458627 -0.0125801)
(-6.23865e-16 -0.0121281 4.89696 -0.0097048 -0.0469804 -0.0138502)
(6.52653e-16 -0.0174726 4.89213 -0.00838037 -0.0476327 -0.0149502)
(-6.8277e-16 -0.0225244 4.88545 -0.00704734 -0.0478473 -0.0159383)
(0 -0.0272614 4.87691 -0.00565827 -0.0476594 -0.0168696)
(0 -0.0317919 4.86645 -0.00415476 -0.0471064 -0.0178209)
(0 -0.0363674 4.85388 -0.00247203 -0.0462301 -0.0188535)
(0 -0.041396 4.8389 -0.000547381 -0.0450672 -0.0200383)
(0 -0.0474361 4.82113 0.00168446 -0.0436564 -0.0214201)
(8.95006e-16 -0.055163 4.8001 0.00428994 -0.0420229 -0.0230847)
(0 -0.0653431 4.77531 0.0072955 -0.0401845 -0.0250192)
(9.79511e-16 -0.0788086 4.74624 0.0106978 -0.0381606 -0.0271792)
(0 -0.0964274 4.71241 0.0144774 -0.0359481 -0.0295072)
(0 -0.119029 4.67336 0.0186043 -0.0335396 -0.0319351)
(5.60732e-16 -0.147369 4.62875 0.0230575 -0.0308951 -0.0344133)
(-5.86607e-16 -0.18206 4.57823 0.0278409 -0.027943 -0.0369031)
(-6.13676e-16 -0.223581 4.52137 0.0329451 -0.0246353 -0.0393767)
(0 -0.272775 4.45743 0.0380008 -0.0213576 -0.0415758)
(0 -0.331011 4.38546 0.0422411 -0.0184337 -0.0428744)
(0 -0.399929 4.30508 0.0456189 -0.0158321 -0.0434876)
(0 -0.481333 4.21622 0.0486986 -0.013813 -0.0437725)
(0 -0.577117 4.11869 0.0516369 -0.0124171 -0.0438516)
(0 -0.689204 4.01224 0.0544209 -0.0113496 -0.0438724)
(0 -0.819227 3.89637 0.0571272 -0.0101768 -0.0440437)
(0 -0.968013 3.77007 0.0598424 -0.00833256 -0.0445312)
(4.60507e-16 -1.13498 3.63111 0.0624644 -0.00514696 -0.0452106)
(0 -1.31744 3.47541 0.0643933 0.000119758 -0.045304)
(-1.00797e-15 -1.50998 3.29646 0.0627041 0.00848908 -0.0429287)
(0 -1.70301 3.08474 0.0511576 0.0182326 -0.0340529)
(0 -1.88183 2.82744 0.0298726 0.0197524 -0.0168215)
(2.88513e-16 -2.03333 2.5159 0.00972243 0.00917434 -0.00212031)
(-3.01826e-16 -2.1538 2.15379 0.000370621 -0.0045081 0.000370649)
(0 -2.24645 1.75597 0.00250501 -0.0116088 -0.00521354)
(-1.65162e-16 -2.31896 1.3454 0.00882944 -0.0109147 -0.00999545)
(-8.63919e-17 -2.3831 0.941683 0.0119084 -0.00552302 -0.0116818)
(-1.80757e-16 -2.44963 0.553308 0.0103783 0.00103469 -0.0102896)
(0 -2.52372 0.18166 0.00558063 0.00696218 -0.00511606)
(-1.38821e-15 0.00227794 3.91563 -0.0244148 -0.00166136 -0.015118)
(0 0.00662725 3.91791 -0.0241388 -0.00490872 -0.015578)
(0 0.0104293 3.92205 -0.0235953 -0.00798496 -0.0158759)
(0 0.0133639 3.92741 -0.0228034 -0.0108711 -0.0163551)
(0 0.0151446 3.93343 -0.0217942 -0.0135473 -0.0170075)
(-8.69732e-16 0.015605 3.93952 -0.0205963 -0.0159864 -0.0178272)
(0 0.0146656 3.9452 -0.0192392 -0.0181555 -0.0188012)
(-9.51852e-16 0.0123485 3.95007 -0.0177618 -0.0200183 -0.0199091)
(-9.95775e-16 0.00877877 3.95383 -0.0162039 -0.0215428 -0.0211228)
(0 0.00417583 3.9563 -0.0146066 -0.0227031 -0.0224109)
(-1.0898e-15 -0.00117696 3.95737 -0.0130037 -0.0234846 -0.0237433)
(0 -0.00697187 3.957 -0.011416 -0.0238817 -0.0250987)
(1.19269e-15 -0.0129129 3.95516 -0.00985475 -0.0238986 -0.0264636)
(1.24773e-15 -0.0187506 3.9518 -0.00830869 -0.0235563 -0.0278404)
(6.52653e-16 -0.0243586 3.94683 -0.00674324 -0.0228749 -0.0292621)
(0 -0.029742 3.94009 -0.00511376 -0.0218803 -0.0307614)
(-7.14276e-16 -0.0350451 3.93135 -0.00336408 -0.0205984 -0.0323985)
(0 -0.0405625 3.92029 -0.00142947 -0.0190563 -0.0342295)
(0 -0.0467478 3.90654 0.000755622 -0.01727 -0.0363335)
(0 -0.0541937 3.88969 0.00325631 -0.0152514 -0.0387649)
(0 -0.0636113 3.86936 0.00613426 -0.0130024 -0.0415832)
(0 -0.0757962 3.84516 0.00941874 -0.0105156 -0.0448309)
(0 -0.0915876 3.81677 0.0131197 -0.00777058 -0.0485477)
(0 -0.111848 3.78399 0.0172261 -0.00471737 -0.052736)
(0 -0.137391 3.74673 0.0217159 -0.00131094 -0.0573845)
(0 -0.168964 3.70501 0.0265834 0.00250801 -0.0625009)
(1.12146e-15 -0.207203 3.65892 0.0318646 0.00678147 -0.0681004)
(-5.86607e-16 -0.252655 3.60846 0.0377169 0.0114716 -0.0742138)
(0 -0.306032 3.55358 0.0433512 0.0164648 -0.0804215)
(6.41994e-16 -0.368776 3.49484 0.0473555 0.0214391 -0.0823988)
(0 -0.442698 3.43241 0.0500399 0.0264554 -0.0821019)
(7.0261e-16 -0.529435 3.36668 0.0524479 0.0315553 -0.0816452)
(7.35032e-16 -0.630773 3.29834 0.0546952 0.0366767 -0.0811648)
(7.68951e-16 -0.748696 3.22805 0.0566314 0.0418102 -0.0806638)
(0 -0.885119 3.15623 0.0581872 0.0469622 -0.0800749)
(0 -1.04161 3.08255 0.0592207 0.0521458 -0.0791178)
(0 -1.21901 3.00532 0.0594055 0.0573701 -0.0771327)
(0 -1.41692 2.92069 0.0586739 0.0625895 -0.0729952)
(0 -1.63329 2.82218 0.0555333 0.0683813 -0.0650698)
(0 -1.86446 2.70084 0.0437 0.0731247 -0.0488757)
(0 -2.10057 2.54211 0.0241017 0.0623492 -0.0183536)
(0 -2.32364 2.32364 0.0067902 0.0352775 0.00679028)
(5.77026e-16 -2.51591 2.03333 -0.00212036 0.00917434 0.00972248)
(3.01826e-16 -2.66372 1.68004 -0.00157048 -0.00345656 -0.000783788)
(0 -2.76548 1.29369 0.0053277 -0.00564149 -0.00843965)
(-1.65162e-16 -2.83904 0.905883 0.0112194 -0.00200557 -0.0111944)
(-8.63919e-17 -2.90689 0.531793 0.0111048 0.00466351 -0.0104812)
(0 -2.98075 0.174474 0.00626698 0.0126442 -0.00551232)
(0 0.00244533 3.19566 -0.0251024 -0.000757824 0.0267463)
(0 0.00711294 3.19744 -0.0248155 -0.00220499 0.026478)
(-1.45227e-15 0.0111759 3.20064 -0.0242603 -0.00355859 0.0261231)
(7.59644e-16 0.0142917 3.20471 -0.0234514 -0.00484038 0.0255757)
(-1.58939e-15 0.0161715 3.20922 -0.022412 -0.00600856 0.0248389)
(0 0.0166454 3.21373 -0.0211686 -0.00703568 0.0239131)
(1.73946e-15 0.0156383 3.21789 -0.0197472 -0.00788832 0.0228055)
(9.09866e-16 0.0131814 3.22142 -0.0181842 -0.00852991 0.0215326)
(-9.51852e-16 0.00941209 3.22411 -0.0165184 -0.00892736 0.0201199)
(9.95775e-16 0.00456043 3.22584 -0.0147906 -0.00905361 0.0185976)
(0 -0.00108342 3.22653 -0.0130357 -0.00889167 0.0169954)
(0 -0.00721193 3.22612 -0.0112753 -0.00843228 0.0153343)
(0 -0.0135384 3.22451 -0.00952294 -0.00767364 0.013628)
(1.19269e-15 -0.0198332 3.22158 -0.00776885 -0.0066311 0.0118747)
(1.24773e-15 -0.0259956 3.21713 -0.00597931 -0.00531533 0.0100405)
(0 -0.0320633 3.2109 -0.00411014 -0.00374119 0.00809287)
(0 -0.0382177 3.20258 -0.0021046 -0.00192173 0.00597012)
(0 -0.0447911 3.19179 0.000105392 0.000129252 0.00361463)
(7.47237e-16 -0.0522669 3.17815 0.00259077 0.00241161 0.000942201)
(0 -0.0612536 3.1613 0.00541888 0.00492561 -0.00210533)
(2.45337e-15 -0.0724748 3.14093 0.00865169 0.00768435 -0.00560034)
(0 -0.0867256 3.11682 0.0123272 0.0107114 -0.00957984)
(-1.79001e-15 -0.104818 3.08886 0.0164736 0.0140395 -0.0140994)
(0 -0.127573 3.05708 0.0210905 0.0177289 -0.0191677)
(9.79511e-16 -0.155755 3.02168 0.0261575 0.0218193 -0.0247733)
(0 -0.190073 2.98296 0.0316523 0.0263479 -0.0309113)
(0 -0.231162 2.94127 0.0375134 0.0313013 -0.0375293)
(0 -0.279603 2.89692 0.043684 0.0365312 -0.0445315)
(1.17321e-15 -0.335957 2.85013 0.049552 0.0420834 -0.0516973)
(1.22735e-15 -0.401461 2.80131 0.0543761 0.0480453 -0.0583333)
(0 -0.477824 2.75153 0.0583471 0.0543863 -0.0644448)
(-6.71619e-16 -0.56651 2.70206 0.0617959 0.0611199 -0.0700722)
(7.02611e-16 -0.669173 2.65407 0.064542 0.0680999 -0.0748419)
(-7.35032e-16 -0.78783 2.6086 0.06617 0.0750617 -0.0781686)
(7.68951e-16 -0.924766 2.56629 0.0661501 0.0817541 -0.0793727)
(0 -1.08246 2.52697 0.0638418 0.0879969 -0.0777826)
(0 -1.26339 2.48906 0.0585311 0.0937423 -0.0729064)
(0 -1.46955 2.44885 0.0505585 0.0990459 -0.0646346)
(0 -1.7012 2.39993 0.0405643 0.10534 -0.0533632)
(0 -1.95816 2.33404 0.0178568 0.115611 -0.0391423)
(0 -2.24193 2.24193 -0.00919689 0.105759 -0.00919676)
(0 -2.54211 2.10057 -0.0183537 0.0623492 0.0241018)
(0 -2.82744 1.88183 -0.0168215 0.0197524 0.0298726)
(0 -3.05617 1.58153 -0.0159457 0.00138242 0.0155748)
(0 -3.20519 1.22836 -0.00962827 -0.00168102 0.00320432)
(0 -3.2953 0.862474 0.00156629 0.00084961 -0.00298799)
(8.25812e-17 -3.36567 0.506448 0.00643957 0.0075728 -0.00531432)
(0 -3.43899 0.166128 0.00441421 0.0177067 -0.00355611)
(0 0.00257635 2.6447 -0.0253166 -0.00013444 0.0350341)
(1.32698e-15 0.00748607 2.646 -0.0250213 -0.000381418 0.0347742)
(0 0.0117378 2.64826 -0.0244571 -0.000600771 0.0341173)
(0 0.0149777 2.65109 -0.0236343 -0.000793844 0.0331705)
(0 0.0169168 2.65414 -0.0225689 -0.000926224 0.0319655)
(0 0.017385 2.65712 -0.0212853 -0.000970281 0.0305315)
(1.66274e-15 0.0163129 2.65977 -0.0198063 -0.000892946 0.0289018)
(0 0.0137402 2.66191 -0.0181661 -0.000658926 0.0271163)
(-9.09866e-16 0.00981252 2.66343 -0.0164023 -0.000236807 0.0252191)
(9.51852e-16 0.00476451 2.66422 -0.0145556 0.000398852 0.0232542)
(1.99155e-15 -0.00111492 2.66423 -0.0126607 0.00126393 0.0212585)
(0 -0.00752752 2.66335 -0.0107389 0.00236855 0.0192541)
(1.0898e-15 -0.0142049 2.66146 -0.00880432 0.00371795 0.0172523)
(-2.28017e-15 -0.0209444 2.65835 -0.00684659 0.00529999 0.0152449)
(-1.19269e-15 -0.0276758 2.65377 -0.00483045 0.00711186 0.0131885)
(0 -0.0344694 2.6474 -0.00270996 0.0091481 0.0110436)
(0 -0.0415395 2.63888 -0.000426011 0.0114065 0.00874054)
(0 -0.0492458 2.62785 0.00209369 0.0138827 0.00621977)
(1.42855e-15 -0.0580843 2.61395 0.00492258 0.0165853 0.00339508)
(-1.49447e-15 -0.0686651 2.5969 0.00813026 0.0195146 0.000215122)
(0 -0.081697 2.5765 0.0117836 0.0226913 -0.00340774)
(0 -0.0979392 2.5527 0.0159235 0.0261444 -0.00749042)
(8.55527e-16 -0.11815 2.5256 0.0205838 0.0298947 -0.0120703)
(-2.68502e-15 -0.143081 2.49544 0.0257609 0.0339837 -0.0171349)
(-9.36306e-16 -0.173426 2.46265 0.031418 0.038412 -0.0226389)
(0 -0.209841 2.42774 0.0374945 0.0431771 -0.0285306)
(1.02471e-15 -0.252936 2.39128 0.0438189 0.0482376 -0.0346448)
(0 -0.30331 2.35379 0.0501087 0.0534566 -0.040715)
(0 -0.361609 2.31576 0.0561405 0.0585952 -0.0464285)
(0 -0.428699 2.2775 0.0618082 0.0637449 -0.0527447)
(-1.22735e-15 -0.505742 2.24022 0.0667961 0.068972 -0.0587577)
(-6.41994e-16 -0.594136 2.20522 0.0705941 0.0740603 -0.0634943)
(0 -0.695611 2.17354 0.0727113 0.0787589 -0.0664158)
(-1.40522e-15 -0.812327 2.14595 0.0725462 0.0828931 -0.0668594)
(0 -0.946947 2.1228 0.0694085 0.0864371 -0.0641281)
(0 -1.10275 2.10386 0.062676 0.0895827 -0.0576569)
(0 -1.28373 2.08792 0.0518114 0.0927628 -0.0472052)
(0 -1.49432 2.07209 0.0373538 0.0963829 -0.0330757)
(0 -1.73784 2.05036 0.0247189 0.101072 -0.0165342)
(0 -2.01523 2.01523 -0.000315443 0.112993 -0.000315313)
(0 -2.33404 1.95816 -0.0391424 0.115611 0.0178569)
(0 -2.70084 1.86446 -0.0488757 0.0731247 0.0437001)
(-5.27244e-16 -3.08475 1.70301 -0.034053 0.0182325 0.0511576)
(2.75787e-16 -3.41243 1.45584 -0.0326584 -0.00454202 0.0372683)
(0 -3.62666 1.14292 -0.031114 -0.00515624 0.0217271)
(0 -3.74315 0.806196 -0.0154129 -0.00106482 0.0114117)
(0 -3.81911 0.474105 -0.00313327 0.00672146 0.00452363)
(0 -3.89244 0.155585 0.000240513 0.0189044 0.000528874)
(0 0.00267322 2.21615 -0.0251777 0.00028992 0.0259025)
(0 0.0077563 2.21704 -0.0248779 0.000857107 0.0256348)
(1.32698e-15 0.0121335 2.21854 -0.0243032 0.00140999 0.0250358)
(0 0.0154466 2.22034 -0.0234628 0.00196818 0.0241627)
(-1.45227e-15 0.0174086 2.22221 -0.0223694 0.0025595 0.0230351)
(0 0.0178515 2.22393 -0.0210439 0.00321152 0.0216726)
(-1.58939e-15 0.0167117 2.22533 -0.0195068 0.00395632 0.0200993)
(-2.49411e-15 0.0140356 2.22631 -0.0177904 0.0048272 0.0183477)
(0 0.00997324 2.22679 -0.0159313 0.00585327 0.0164562)
(0 0.00475819 2.2267 -0.0139696 0.00705776 0.0144649)
(0 -0.00132879 2.22596 -0.0119392 0.00845472 0.0124084)
(0 -0.00800575 2.22446 -0.00985945 0.0100545 0.0103063)
(0 -0.0150287 2.22203 -0.00774352 0.0118646 0.00816926)
(0 -0.0222259 2.21843 -0.00557847 0.0138739 0.00598886)
(0 -0.0295585 2.21335 -0.0033254 0.016085 0.00371834)
(0 -0.0371271 2.20647 -0.000935015 0.0184978 0.00131778)
(0 -0.0451714 2.19742 0.00165482 0.0211157 -0.0012869)
(-1.30531e-15 -0.0540663 2.18586 0.00451979 0.0239366 -0.00415678)
(0 -0.0643057 2.17151 0.00773335 0.0269706 -0.00738352)
(1.42855e-15 -0.076484 2.15417 0.0113655 0.0302122 -0.0110151)
(0 -0.0912716 2.13377 0.0154842 0.0336762 -0.0151449)
(0 -0.109363 2.11042 0.0201231 0.0373774 -0.0197845)
(0 -0.131444 2.08437 0.0253082 0.0413089 -0.0249753)
(0 -0.158176 2.05607 0.0310149 0.0454824 -0.0306907)
(1.79001e-15 -0.190169 2.02609 0.0371731 0.0498484 -0.0368536)
(-9.36306e-16 -0.228007 1.99511 0.0436773 0.0543694 -0.0433744)
(-9.79511e-16 -0.272258 1.96383 0.0502848 0.058996 -0.0499992)
(-1.02471e-15 -0.323484 1.93291 0.0566433 0.0636293 -0.0563734)
(0 -0.3823 1.90299 0.0625257 0.0681583 -0.062108)
(0 -0.449411 1.87466 0.0677569 0.0722638 -0.0668842)
(0 -0.525768 1.84865 0.0717982 0.0755185 -0.0702073)
(0 -0.61273 1.82568 0.0739227 0.0777778 -0.0715676)
(0 -0.712105 1.80634 0.073522 0.0790785 -0.0704763)
(-6.71619e-16 -0.826221 1.79095 0.0700215 0.0795962 -0.0664163)
(0 -0.958029 1.77955 0.0629376 0.0797253 -0.0589454)
(0 -1.11125 1.77173 0.0520468 0.0801054 -0.0478432)
(7.68951e-16 -1.29084 1.76663 0.0372077 0.0815606 -0.0332086)
(0 -1.50365 1.76268 0.0193151 0.0846336 -0.0154727)
(0 -1.75541 1.75541 0.00415652 0.0904307 0.00415663)
(0 -2.05036 1.73784 -0.0165343 0.101072 0.0247191)
(-4.60507e-16 -2.39993 1.7012 -0.0533633 0.10534 0.0405644)
(0 -2.82218 1.63329 -0.0650698 0.0683812 0.0555334)
(0 -3.29646 1.50997 -0.0429287 0.008489 0.0627042)
(0 -3.72788 1.30827 -0.0415585 -0.0183502 0.0537715)
(0 -4.01923 1.0376 -0.0494814 -0.0158418 0.0393168)
(2.88513e-16 -4.17143 0.735797 -0.033461 -0.00866343 0.0267022)
(0 -4.2571 0.433679 -0.0141151 0.000702135 0.0156271)
(-3.94693e-17 -4.33173 0.142448 -0.00450114 0.0140677 0.00527863)
(-1.15901e-15 0.00273887 1.8822 -0.0247737 0.000572103 0.0244143)
(1.2125e-15 0.00793657 1.88273 -0.0244677 0.00169338 0.0241069)
(0 0.0123877 1.88361 -0.0238786 0.00278119 0.0235229)
(0 0.0157308 1.88458 -0.0230155 0.00385905 0.0226645)
(1.38821e-15 0.0176838 1.88548 -0.0218881 0.00495711 0.0215447)
(0 0.0180821 1.88617 -0.0205151 0.00610278 0.0201786)
(0 0.0168677 1.88654 -0.0189149 0.00732713 0.0185863)
(0 0.0140915 1.88654 -0.0171185 0.00866166 0.0167971)
(-1.66274e-15 0.00990388 1.88611 -0.0151615 0.0101336 0.0148474)
(0 0.00453231 1.88519 -0.0130831 0.0117645 0.0127751)
(9.09866e-16 -0.00175599 1.88371 -0.0109152 0.0135668 0.010613)
(0 -0.00870046 1.88151 -0.00867396 0.0155508 0.00837719)
(-9.95775e-16 -0.0160851 1.87841 -0.00637012 0.017726 0.00607618)
(1.04172e-15 -0.0237703 1.87413 -0.00398681 0.0200798 0.00369897)
(0 -0.031747 1.86837 -0.00147998 0.0226171 0.00119251)
(1.14008e-15 -0.0401412 1.86078 0.00120348 0.0253391 -0.00148409)
(0 -0.0492095 1.85105 0.00412771 0.028249 -0.00440976)