/*--------------------------------*- C++ -*----------------------------------*\
| =========                 |                                                 |
| \\      /  F ield         | OpenFOAM: The Open Source CFD Toolbox           |
|  \\    /   O peration     | Version:  2412                                  |
|   \\  /    A nd           | Website:  www.openfoam.com                      |
|    \\/     M anipulation  |                                                 |
\*---------------------------------------------------------------------------*/
FoamFile
{
    version     2.0;
    format      ascii;
    arch        "LSB;label=32;scalar=64";
    class       volSymmTensorField;
    location    "1830";
    object      Tij10;
}
// * * * * * * * * * * * * * * * * * * * * * * * * * * * * * * * * * * * * * //

dimensions      [0 0 0 0 0 0 0];

internalField   nonuniform List<symmTensor> 
2304
(
(-9.97511e-16 9.08885e-18 2.69023e-13 -2.5915e-20 -4.19413e-16 2.37481e-20)
(-9.96892e-16 2.66068e-17 2.70261e-13 -2.22917e-19 -1.23847e-15 2.04183e-19)
(-9.93006e-16 4.24471e-17 2.72539e-13 -5.74259e-19 -2.01841e-15 5.2541e-19)
(-9.86133e-16 5.54956e-17 2.75628e-13 -1.0115e-18 -2.75687e-15 9.22724e-19)
(-9.76873e-16 6.45691e-17 2.79218e-13 -1.44614e-18 -3.44908e-15 1.31145e-18)
(-9.65e-16 6.88654e-17 2.82979e-13 -1.7893e-18 -4.09055e-15 1.60619e-18)
(-9.50966e-16 6.78286e-17 2.86574e-13 -1.96017e-18 -4.6756e-15 1.72905e-18)
(-9.35077e-16 6.12968e-17 2.89687e-13 -1.89916e-18 -5.19955e-15 1.62259e-18)
(-9.18027e-16 4.95873e-17 2.92045e-13 -1.57697e-18 -5.65877e-15 1.25878e-18)
(-9.0039e-16 3.35286e-17 2.93447e-13 -1.00001e-18 -6.05202e-15 6.44644e-19)
(-8.82738e-16 1.43565e-17 2.93775e-13 -2.07218e-19 -6.38045e-15 -1.80874e-19)
(-8.65349e-16 -6.46121e-18 2.93006e-13 7.38612e-19 -6.64768e-15 -1.15529e-18)
(-8.48181e-16 -2.74232e-17 2.91197e-13 1.76243e-18 -6.85892e-15 -2.2039e-18)
(-8.31001e-16 -4.71686e-17 2.88476e-13 2.78812e-18 -7.02073e-15 -3.25093e-18)
(-8.12457e-16 -6.49046e-17 2.85012e-13 3.76132e-18 -7.13917e-15 -4.24162e-18)
(-7.91898e-16 -8.0373e-17 2.80976e-13 4.65277e-18 -7.21908e-15 -5.14648e-18)
(-7.67519e-16 -9.3906e-17 2.76527e-13 5.46285e-18 -7.26357e-15 -5.96462e-18)
(-7.38386e-16 -1.06378e-16 2.71778e-13 6.22275e-18 -7.27346e-15 -6.72635e-18)
(-7.02407e-16 -1.19262e-16 2.66793e-13 6.99752e-18 -7.24713e-15 -7.49482e-18)
(-6.58883e-16 -1.34472e-16 2.61565e-13 7.87952e-18 -7.1804e-15 -8.36138e-18)
(-6.0672e-16 -1.54352e-16 2.56021e-13 8.98423e-18 -7.06751e-15 -9.44035e-18)
(-5.45966e-16 -1.81429e-16 2.50013e-13 1.04324e-17 -6.90136e-15 -1.08526e-17)
(-4.7598e-16 -2.1807e-16 2.43339e-13 1.2321e-17 -6.67458e-15 -1.26952e-17)
(-3.98016e-16 -2.66223e-16 2.3576e-13 1.47013e-17 -6.38044e-15 -1.50214e-17)
(-3.14657e-16 -3.26971e-16 2.27022e-13 1.75481e-17 -6.01528e-15 -1.78094e-17)
(-2.3005e-16 -3.99937e-16 2.16896e-13 2.07304e-17 -5.58e-15 -2.09326e-17)
(-1.50146e-16 -4.82393e-16 2.05216e-13 2.3985e-17 -5.08214e-15 -2.41327e-17)
(-7.86511e-17 -5.69147e-16 1.91949e-13 2.69456e-17 -4.53635e-15 -2.70466e-17)
(-1.11553e-17 -6.54937e-16 1.77219e-13 2.92905e-17 -3.96206e-15 -2.93524e-17)
(7.8752e-17 -7.4008e-16 1.61255e-13 3.08813e-17 -3.36802e-15 -3.09024e-17)
(1.74006e-16 -8.24012e-16 1.44185e-13 3.14741e-17 -2.75914e-15 -3.14625e-17)
(2.55584e-16 -9.00166e-16 1.26204e-13 3.0667e-17 -2.15488e-15 -3.06373e-17)
(3.15417e-16 -9.59527e-16 1.07658e-13 2.8131e-17 -1.58183e-15 -2.8097e-17)
(3.46446e-16 -9.92417e-16 8.90301e-14 2.37532e-17 -1.06756e-15 -2.37255e-17)
(3.42232e-16 -9.88882e-16 7.09188e-14 1.77626e-17 -6.378e-16 -1.77462e-17)
(3.00718e-16 -9.40755e-16 5.40112e-14 1.08613e-17 -3.1198e-16 -1.08551e-17)
(2.28431e-16 -8.45497e-16 3.90065e-14 4.21914e-18 -9.73109e-17 -4.21825e-18)
(1.4181e-16 -7.10013e-16 2.6488e-14 -8.41961e-19 1.5693e-17 8.41992e-19)
(6.29153e-17 -5.51519e-16 1.67773e-14 -3.45058e-18 5.24174e-17 3.45096e-18)
(9.61488e-18 -3.93262e-16 9.83983e-15 -3.69556e-18 4.61568e-17 3.69566e-18)
(-1.24429e-17 -2.56325e-16 5.30485e-15 -2.57394e-18 2.65759e-17 2.57369e-18)
(-1.24368e-17 -1.5228e-16 2.60068e-15 -1.28659e-18 1.09506e-17 1.28643e-18)
(-6.11209e-18 -8.17497e-17 1.13547e-15 -4.68206e-19 3.23509e-18 4.6817e-19)
(-1.89588e-18 -3.87012e-17 4.24396e-16 -1.19404e-19 6.49273e-19 1.19401e-19)
(-3.66719e-19 -1.53264e-17 1.26156e-16 -1.8517e-20 7.50851e-20 1.85169e-20)
(-3.61686e-20 -4.55012e-18 2.57197e-17 -1.01781e-21 2.78658e-21 1.01781e-21)
(-1.07841e-21 -7.85215e-19 2.53065e-18 5.63778e-23 -8.21028e-23 -5.63778e-23)
(-8.95279e-24 -4.63905e-20 4.63905e-20 4.79932e-28 1.37961e-34 -4.79932e-28)
(5.86094e-12 1.50427e-13 1.83926e-09 -4.30257e-16 -2.56089e-12 4.45646e-16)
(6.12066e-12 4.38891e-13 1.84766e-09 -3.69593e-15 -7.56374e-12 3.83293e-15)
(6.37879e-12 6.96492e-13 1.86312e-09 -9.49765e-15 -1.23295e-11 9.86497e-15)
(6.75885e-12 8.99952e-13 1.88408e-09 -1.66343e-14 -1.68466e-11 1.73298e-14)
(7.2269e-12 1.02488e-12 1.90844e-09 -2.35337e-14 -2.10894e-11 2.46423e-14)
(7.75012e-12 1.05494e-12 1.93397e-09 -2.86056e-14 -2.50307e-11 3.01966e-14)
(8.28913e-12 9.78921e-13 1.95838e-09 -3.03998e-14 -2.86354e-11 3.25213e-14)
(8.80543e-12 7.93845e-13 1.97951e-09 -2.78462e-14 -3.18722e-11 3.05214e-14)
(9.26084e-12 5.066e-13 1.99553e-09 -2.04288e-14 -3.47152e-11 2.36536e-14)
(9.62457e-12 1.34613e-13 2.00506e-09 -8.29275e-15 -3.71515e-11 1.20375e-14)
(9.87548e-12 -2.96372e-13 2.0073e-09 7.80748e-15 -3.91822e-11 -3.59446e-15)
(1.00063e-11 -7.55926e-13 2.00208e-09 2.66672e-14 -4.08237e-11 -2.20524e-14)
(1.00227e-11 -1.21299e-12 1.9898e-09 4.68448e-14 -4.2103e-11 -4.19022e-14)
(9.94286e-12 -1.63958e-12 1.9713e-09 6.68783e-14 -4.3056e-11 -6.16819e-14)
(9.80262e-12 -2.01933e-12 1.94774e-09 8.5713e-14 -4.37188e-11 -8.03283e-14)
(9.63318e-12 -2.34726e-12 1.92026e-09 1.0278e-13 -4.41218e-11 -9.72644e-14)
(9.47589e-12 -2.63027e-12 1.88995e-09 1.18067e-13 -4.42873e-11 -1.12463e-13)
(9.36115e-12 -2.88678e-12 1.85758e-09 1.32151e-13 -4.42252e-11 -1.26492e-13)
(9.32447e-12 -3.1472e-12 1.8236e-09 1.46229e-13 -4.39329e-11 -1.40538e-13)
(9.38149e-12 -3.45139e-12 1.78796e-09 1.62007e-13 -4.33944e-11 -1.56302e-13)
(9.54281e-12 -3.84803e-12 1.75014e-09 1.81602e-13 -4.25822e-11 -1.75904e-13)
(9.79744e-12 -4.3898e-12 1.70898e-09 2.07218e-13 -4.14578e-11 -2.01556e-13)
(1.01321e-11 -5.1262e-12 1.6633e-09 2.40642e-13 -3.99903e-11 -2.35059e-13)
(1.05076e-11 -6.09843e-12 1.61148e-09 2.82857e-13 -3.81495e-11 -2.77418e-13)
(1.08654e-11 -7.3303e-12 1.55183e-09 3.33532e-13 -3.592e-11 -3.28322e-13)
(1.11288e-11 -8.81627e-12 1.4828e-09 3.90493e-13 -3.33094e-11 -3.85618e-13)
(1.12079e-11 -1.05026e-11 1.40325e-09 4.4916e-13 -3.03546e-11 -4.44735e-13)
(1.10532e-11 -1.22827e-11 1.31289e-09 5.02843e-13 -2.71241e-11 -4.98966e-13)
(1.07629e-11 -1.40454e-11 1.21253e-09 5.45263e-13 -2.37106e-11 -5.41973e-13)
(1.06549e-11 -1.57929e-11 1.10375e-09 5.74491e-13 -2.01961e-11 -5.71725e-13)
(1.05601e-11 -1.75206e-11 9.87448e-10 5.88127e-13 -1.66528e-11 -5.8587e-13)
(1.02627e-11 -1.90965e-11 8.64932e-10 5.80191e-13 -1.31869e-11 -5.7845e-13)
(9.69168e-12 -2.03357e-11 7.38579e-10 5.45383e-13 -9.92838e-12 -5.44138e-13)
(8.8028e-12 -2.10386e-11 6.11639e-10 4.81755e-13 -7.01146e-12 -4.8095e-13)
(7.56497e-12 -2.09959e-11 4.88121e-10 3.92149e-13 -4.55773e-12 -3.91699e-13)
(6.00518e-12 -2.00281e-11 3.72613e-10 2.85767e-13 -2.65347e-12 -2.85562e-13)
(4.25297e-12 -1.80657e-11 2.69814e-10 1.78082e-13 -1.32466e-12 -1.78014e-13)
(2.54275e-12 -1.52336e-11 1.8371e-10 8.69823e-14 -5.21002e-13 -8.69688e-14)
(1.14646e-12 -1.18806e-11 1.16611e-10 2.55069e-14 -1.23885e-13 -2.5506e-14)
(2.50668e-13 -8.4999e-12 6.84707e-11 -4.32732e-15 1.71606e-14 4.32732e-15)
(-1.29939e-13 -5.55247e-12 3.68988e-11 -1.13952e-14 3.70063e-14 1.13951e-14)
(-1.63644e-13 -3.31369e-12 1.81122e-11 -8.39393e-15 2.21729e-14 8.39373e-15)
(-8.71223e-14 -1.79944e-12 7.96612e-12 -4.01632e-15 8.43676e-15 4.01624e-15)
(-2.94109e-14 -8.74197e-13 3.03968e-12 -1.34071e-15 2.13814e-15 1.3407e-15)
(-6.54752e-15 -3.6462e-13 9.45406e-13 -2.93393e-16 3.23788e-16 2.93393e-16)
(-8.16569e-16 -1.12371e-13 1.98478e-13 -2.95163e-17 1.77115e-17 2.95163e-17)
(-1.99097e-17 -9.30917e-15 9.30916e-15 4.01755e-23 1.17942e-29 -4.01755e-23)
(-1.07849e-21 -2.53065e-18 7.85213e-19 -5.63631e-23 -8.20815e-23 5.63631e-23)
(2.39078e-09 5.15806e-11 3.65192e-07 -1.28476e-13 -4.42386e-10 1.32979e-13)
(2.44364e-09 1.50574e-10 3.66686e-07 -1.10398e-12 -1.30646e-09 1.14349e-12)
(2.5047e-09 2.38902e-10 3.69427e-07 -2.83634e-12 -2.1287e-09 2.94118e-12)
(2.59508e-09 3.08672e-10 3.73134e-07 -4.9676e-12 -2.90728e-09 5.16344e-12)
(2.70792e-09 3.51599e-10 3.77427e-07 -7.03067e-12 -3.63849e-09 7.33833e-12)
(2.83638e-09 3.62178e-10 3.81908e-07 -8.55232e-12 -4.31794e-09 8.98766e-12)
(2.97245e-09 3.3667e-10 3.86173e-07 -9.10013e-12 -4.94011e-09 9.67364e-12)
(3.10815e-09 2.74097e-10 3.89845e-07 -8.35232e-12 -5.49979e-09 9.06907e-12)
(3.2354e-09 1.76778e-10 3.92604e-07 -6.15035e-12 -5.99257e-09 7.00991e-12)
(3.34743e-09 5.05307e-11 3.94213e-07 -2.53146e-12 -6.41587e-09 3.52845e-12)
(3.43931e-09 -9.60689e-11 3.94537e-07 2.28414e-12 -6.76924e-09 -1.15927e-12)
(3.50895e-09 -2.52892e-10 3.93546e-07 7.93889e-12 -7.05449e-09 -6.6987e-12)
(3.55698e-09 -4.09566e-10 3.91306e-07 1.4e-11 -7.27527e-09 -1.26588e-11)
(3.58696e-09 -5.56696e-10 3.8796e-07 2.00243e-11 -7.43668e-09 -1.85969e-11)
(3.60673e-09 -6.88708e-10 3.83699e-07 2.5688e-11 -7.54416e-09 -2.41882e-11)
(3.62337e-09 -8.03838e-10 3.78718e-07 3.08136e-11 -7.60266e-09 -2.9254e-11)
(3.6466e-09 -9.04285e-10 3.73193e-07 3.53907e-11 -7.61613e-09 -3.3782e-11)
(3.68398e-09 -9.96192e-10 3.67251e-07 3.95883e-11 -7.58697e-09 -3.79398e-11)
(3.74435e-09 -1.08977e-09 3.60957e-07 4.37599e-11 -7.51597e-09 -4.20791e-11)
(3.83199e-09 -1.19849e-09 3.54297e-07 4.84078e-11 -7.4023e-09 -4.67026e-11)
(3.94904e-09 -1.33921e-09 3.47221e-07 5.41638e-11 -7.24434e-09 -5.24426e-11)
(4.09375e-09 -1.53075e-09 3.39626e-07 6.17015e-11 -7.03984e-09 -5.99752e-11)
(4.26156e-09 -1.79007e-09 3.31179e-07 7.15431e-11 -6.78326e-09 -6.98258e-11)
(4.44098e-09 -2.13206e-09 3.21585e-07 8.4019e-11 -6.47182e-09 -8.23291e-11)
(4.61476e-09 -2.56618e-09 3.10535e-07 9.91133e-11 -6.10439e-09 -9.74739e-11)
(4.76024e-09 -3.09261e-09 2.97733e-07 1.16321e-10 -5.68214e-09 -1.14759e-10)
(4.84954e-09 -3.69583e-09 2.82947e-07 1.34447e-10 -5.20858e-09 -1.32994e-10)
(4.86094e-09 -4.34182e-09 2.66071e-07 1.51573e-10 -4.68934e-09 -1.50259e-10)
(4.80589e-09 -4.99299e-09 2.47192e-07 1.65713e-10 -4.1337e-09 -1.64561e-10)
(4.75291e-09 -5.64988e-09 2.26568e-07 1.76536e-10 -3.56108e-09 -1.75546e-10)
(4.65907e-09 -6.31281e-09 2.04324e-07 1.84085e-10 -2.99251e-09 -1.83257e-10)
(4.47002e-09 -6.93801e-09 1.80673e-07 1.87073e-10 -2.44292e-09 -1.86408e-10)
(4.16833e-09 -7.46228e-09 1.56027e-07 1.84072e-10 -1.92668e-09 -1.83561e-10)
(3.7447e-09 -7.81474e-09 1.30962e-07 1.74295e-10 -1.45921e-09 -1.73925e-10)
(3.19668e-09 -7.91582e-09 1.06206e-07 1.57702e-10 -1.05423e-09 -1.57454e-10)
(2.542e-09 -7.68854e-09 8.26243e-08 1.3516e-10 -7.21039e-10 -1.35008e-10)
(1.83057e-09 -7.08581e-09 6.11556e-08 1.08517e-10 -4.62484e-10 -1.08434e-10)
(1.14378e-09 -6.12493e-09 4.26761e-08 8.03714e-11 -2.74412e-10 -8.03339e-11)
(5.73736e-10 -4.90955e-09 2.78153e-08 5.35858e-11 -1.4712e-10 -5.3573e-11)
(1.85483e-10 -3.61662e-09 1.6788e-08 3.08841e-11 -6.83628e-11 -3.08816e-11)
(-7.29434e-12 -2.44377e-09 9.33714e-09 1.44444e-11 -2.57042e-11 -1.44445e-11)
(-5.16355e-11 -1.51223e-09 4.73963e-09 4.92131e-12 -6.92678e-12 -4.92141e-12)
(-3.39685e-11 -8.53133e-10 2.15906e-09 1.00637e-12 -1.07458e-12 -1.00638e-12)
(-1.30049e-11 -4.24778e-10 8.41513e-10 4.44662e-14 -3.28223e-14 -4.44662e-14)
(-2.92932e-12 -1.58695e-10 2.33624e-10 -2.45508e-14 9.73303e-15 2.45508e-14)
(-2.06358e-13 -2.21459e-11 2.21459e-11 3.20843e-20 9.23914e-27 -3.20843e-20)
(-8.1657e-16 -1.98478e-13 1.12371e-13 2.9517e-17 1.7712e-17 -2.9517e-17)
(-3.61693e-20 -2.57197e-17 4.55011e-18 1.01786e-21 2.78672e-21 -1.01786e-21)
(-1.71191e-07 1.9713e-09 8.12609e-06 -3.8305e-12 -8.25955e-09 3.67516e-12)
(-1.7223e-07 5.76307e-09 8.15111e-06 -3.29359e-11 -2.43815e-08 3.15796e-11)
(-1.72369e-07 9.16139e-09 8.19686e-06 -8.46642e-11 -3.96825e-08 8.10975e-11)
(-1.7242e-07 1.19087e-08 8.25845e-06 -1.48698e-10 -5.41276e-08 1.42128e-10)
(-1.72272e-07 1.37371e-08 8.32955e-06 -2.1182e-10 -6.76654e-08 2.01677e-10)
(-1.7179e-07 1.44736e-08 8.40351e-06 -2.60706e-10 -8.02297e-08 2.46646e-10)
(-1.70862e-07 1.40049e-08 8.47376e-06 -2.83217e-10 -9.17395e-08 2.6511e-10)
(-1.69405e-07 1.23059e-08 8.53428e-06 -2.70239e-10 -1.02117e-07 2.48157e-10)
(-1.67378e-07 9.45387e-09 8.58002e-06 -2.17097e-10 -1.11294e-07 1.91284e-10)
(-1.64772e-07 5.63248e-09 8.60731e-06 -1.24426e-10 -1.19228e-07 9.52657e-11)
(-1.61605e-07 1.10848e-09 8.61404e-06 2.12052e-12 -1.25904e-07 -3.41437e-11)
(-1.57901e-07 -3.8053e-09 8.59972e-06 1.5306e-10 -1.31337e-07 -1.87393e-10)
(-1.53681e-07 -8.78828e-09 8.56528e-06 3.16702e-10 -1.35571e-07 -3.52752e-10)
(-1.4894e-07 -1.35482e-08 8.51277e-06 4.80915e-10 -1.3867e-07 -5.18072e-10)
(-1.43601e-07 -1.79095e-08 8.44498e-06 6.36698e-10 -1.40713e-07 -6.74337e-10)
(-1.37597e-07 -2.18155e-08 8.36471e-06 7.79046e-10 -1.41776e-07 -8.16541e-10)
(-1.30784e-07 -2.53345e-08 8.27448e-06 9.0759e-10 -1.41928e-07 -9.44306e-10)
(-1.2303e-07 -2.86648e-08 8.17598e-06 1.02699e-09 -1.41225e-07 -1.0623e-09)
(-1.14135e-07 -3.214e-08 8.06997e-06 1.14706e-09 -1.39709e-07 -1.18034e-09)
(-1.03966e-07 -3.62101e-08 7.95595e-06 1.28188e-09 -1.37414e-07 -1.31255e-09)
(-9.24229e-08 -4.14466e-08 7.83352e-06 1.44911e-09 -1.34369e-07 -1.47665e-09)
(-7.94524e-08 -4.84913e-08 7.70099e-06 1.6673e-09 -1.30574e-07 -1.69124e-09)
(-6.49563e-08 -5.79499e-08 7.55195e-06 1.95171e-09 -1.25986e-07 -1.97168e-09)
(-4.90373e-08 -7.03896e-08 7.3811e-06 2.31388e-09 -1.2062e-07 -2.32966e-09)
(-3.19447e-08 -8.62332e-08 7.1827e-06 2.75771e-09 -1.14495e-07 -2.76924e-09)
(-1.40816e-08 -1.05652e-07 6.95101e-06 3.2763e-09 -1.0764e-07 -3.2837e-09)
(3.92143e-09 -1.28372e-07 6.68075e-06 3.84562e-09 -1.00053e-07 -3.84918e-09)
(2.12875e-08 -1.53547e-07 6.36796e-06 4.41832e-09 -9.16576e-08 -4.41854e-09)
(3.74151e-08 -1.80129e-07 6.01107e-06 4.93373e-09 -8.23655e-08 -4.93133e-09)
(5.26232e-08 -2.08181e-07 5.61158e-06 5.39224e-09 -7.26943e-08 -5.38792e-09)
(6.6039e-08 -2.37858e-07 5.16957e-06 5.83734e-09 -6.34088e-08 -5.83173e-09)
(7.65439e-08 -2.67911e-07 4.6868e-06 6.26475e-09 -5.4711e-08 -6.25833e-09)
(8.3366e-08 -2.96332e-07 4.16843e-06 6.6516e-09 -4.66219e-08 -6.64479e-09)
(8.56594e-08 -3.206e-07 3.6227e-06 6.98266e-09 -3.92009e-08 -6.97578e-09)
(8.26603e-08 -3.37452e-07 3.06137e-06 7.2333e-09 -3.24563e-08 -7.22663e-09)
(7.41396e-08 -3.43024e-07 2.50019e-06 7.34518e-09 -2.6297e-08 -7.339e-09)
(6.08132e-08 -3.3361e-07 1.95866e-06 7.20588e-09 -2.05621e-08 -7.20056e-09)
(4.44694e-08 -3.07017e-07 1.45872e-06 6.65624e-09 -1.51263e-08 -6.65222e-09)
(2.76596e-08 -2.64125e-07 1.0219e-06 5.56352e-09 -1.00508e-08 -5.56109e-09)
(1.28724e-08 -2.09852e-07 6.65468e-07 3.97298e-09 -5.67536e-09 -3.97204e-09)
(2.55829e-09 -1.52684e-07 3.98345e-07 2.24271e-09 -2.496e-09 -2.24259e-09)
(-1.67474e-09 -1.00487e-07 2.14827e-07 8.97881e-10 -7.49716e-10 -8.97909e-10)
(-1.74112e-09 -5.75631e-08 9.92242e-08 2.1843e-10 -1.24889e-10 -2.18436e-10)
(-7.06381e-10 -2.48924e-08 3.35371e-08 2.25356e-11 -6.81727e-12 -2.25358e-11)
(-1.07375e-10 -5.28059e-09 5.28059e-09 -3.41901e-18 -9.98433e-25 3.41901e-18)
(-2.92932e-12 -2.33624e-10 1.58695e-10 2.4551e-14 9.7331e-15 -2.4551e-14)
(-6.54752e-15 -9.45405e-13 3.64619e-13 2.93393e-16 3.23789e-16 -2.93394e-16)
(-3.66721e-19 -1.26156e-16 1.53264e-17 1.8517e-20 7.50855e-20 -1.85171e-20)
(-1.509e-06 1.33592e-08 3.89928e-05 -2.07104e-11 -3.16782e-08 1.98036e-11)
(-1.51054e-06 3.8981e-08 3.90681e-05 -1.77848e-10 -9.34542e-08 1.69963e-10)
(-1.49941e-06 6.17592e-08 3.92053e-05 -4.56121e-10 -1.51921e-07 4.3554e-10)
(-1.48369e-06 7.99569e-08 3.93893e-05 -7.9932e-10 -2.06975e-07 7.6178e-10)
(-1.46412e-06 9.18401e-08 3.96014e-05 -1.13652e-09 -2.58481e-07 1.07919e-09)
(-1.44136e-06 9.63517e-08 3.98221e-05 -1.39663e-09 -3.06226e-07 1.31799e-09)
(-1.41615e-06 9.28672e-08 4.00331e-05 -1.51544e-09 -3.49961e-07 1.41517e-09)
(-1.38932e-06 8.134e-08 4.02176e-05 -1.44497e-09 -3.89427e-07 1.32375e-09)
(-1.36172e-06 6.23606e-08 4.0362e-05 -1.16086e-09 -4.24395e-07 1.0201e-09)
(-1.33409e-06 3.71521e-08 4.04567e-05 -6.66579e-10 -4.54685e-07 5.08297e-10)
(-1.307e-06 7.41301e-09 4.04962e-05 7.96943e-12 -4.80196e-07 -1.8138e-10)
(-1.28064e-06 -2.49142e-08 4.0479e-05 8.12706e-10 -5.00908e-07 -9.98577e-10)
(-1.25492e-06 -5.78673e-08 4.04071e-05 1.68581e-09 -5.16882e-07 -1.8813e-09)
(-1.22939e-06 -8.96784e-08 4.02854e-05 2.56325e-09 -5.28249e-07 -2.76538e-09)
(-1.203e-06 -1.19309e-07 4.01202e-05 3.3973e-09 -5.35204e-07 -3.60299e-09)
(-1.17481e-06 -1.46477e-07 3.99178e-05 4.16169e-09 -5.37985e-07 -4.36786e-09)
(-1.1435e-06 -1.71702e-07 3.96834e-05 4.855e-09 -5.36843e-07 -5.05854e-09)
(-1.10798e-06 -1.96368e-07 3.94199e-05 5.50255e-09 -5.32032e-07 -5.7005e-09)
(-1.067e-06 -2.22783e-07 3.91274e-05 6.15649e-09 -5.23818e-07 -6.34606e-09)
(-1.01972e-06 -2.5412e-07 3.88026e-05 6.8914e-09 -5.12531e-07 -7.07022e-09)
(-9.64743e-07 -2.9435e-07 3.84456e-05 7.79582e-09 -4.98488e-07 -7.96176e-09)
(-9.02284e-07 -3.47905e-07 3.80486e-05 8.95767e-09 -4.8187e-07 -9.10917e-09)
(-8.3269e-07 -4.19286e-07 3.75907e-05 1.0453e-08 -4.62858e-07 -1.05891e-08)
(-7.56776e-07 -5.12981e-07 3.70543e-05 1.23434e-08 -4.41826e-07 -1.24638e-08)
(-6.75754e-07 -6.32815e-07 3.64201e-05 1.46595e-08 -4.19138e-07 -1.47644e-08)
(-5.90963e-07 -7.8145e-07 3.5668e-05 1.73933e-08 -3.95094e-07 -1.74835e-08)
(-5.04284e-07 -9.59402e-07 3.47769e-05 2.0468e-08 -3.69649e-07 -2.05444e-08)
(-4.18247e-07 -1.16441e-06 3.37261e-05 2.36649e-08 -3.41681e-07 -2.37281e-08)
(-3.34413e-07 -1.39329e-06 3.24948e-05 2.65155e-08 -3.08277e-07 -2.65659e-08)
(-2.22864e-07 -1.64792e-06 3.1058e-05 2.9054e-08 -2.72852e-07 -2.90909e-08)
(-1.06317e-07 -1.93085e-06 2.94084e-05 3.20833e-08 -2.43216e-07 -3.21097e-08)
(-4.15669e-09 -2.23801e-06 2.75441e-05 3.60319e-08 -2.20263e-07 -3.60509e-08)
(7.95081e-08 -2.56048e-06 2.54667e-05 4.11874e-08 -2.02781e-07 -4.12011e-08)
(1.40332e-07 -2.88464e-06 2.31858e-05 4.80768e-08 -1.90262e-07 -4.80864e-08)
(1.75974e-07 -3.18921e-06 2.07219e-05 5.72063e-08 -1.81495e-07 -5.72124e-08)
(1.88519e-07 -3.4431e-06 1.81081e-05 6.85629e-08 -1.73828e-07 -6.8565e-08)
(1.84833e-07 -3.60574e-06 1.53902e-05 8.08607e-08 -1.6315e-07 -8.08577e-08)
(1.73145e-07 -3.63063e-06 1.26269e-05 9.07327e-08 -1.44791e-07 -9.07232e-08)
(1.56248e-07 -3.47292e-06 9.88931e-06 9.2512e-08 -1.15525e-07 -9.24964e-08)
(1.18829e-07 -3.10029e-06 7.26269e-06 7.99439e-08 -7.661e-08 -7.99294e-08)
(4.96602e-08 -2.5139e-06 4.85665e-06 5.2192e-08 -3.6917e-08 -5.21875e-08)
(-5.57945e-09 -1.7625e-06 2.79454e-06 2.13122e-08 -1.01746e-08 -2.13123e-08)
(-1.75831e-08 -9.49136e-07 1.21432e-06 3.82725e-09 -9.52416e-10 -3.82733e-09)
(-6.98577e-09 -2.97329e-07 2.97329e-07 -1.02053e-15 -3.15466e-22 1.02053e-15)
(-7.0638e-10 -3.35371e-08 2.48924e-08 -2.25358e-11 -6.81731e-12 2.25357e-11)
(-1.30048e-11 -8.41511e-10 4.24777e-10 -4.44665e-14 -3.28226e-14 4.44665e-14)
(-2.94109e-14 -3.03968e-12 8.74195e-13 1.3407e-15 2.13814e-15 -1.34071e-15)
(-1.89589e-18 -4.24395e-16 3.87011e-17 1.19401e-19 6.49273e-19 -1.19404e-19)
(-2.11527e-07 3.21561e-08 7.46381e-05 -3.87111e-11 -4.50158e-08 3.87654e-11)
(-1.84287e-07 9.35716e-08 7.47287e-05 -3.31803e-10 -1.32725e-07 3.32355e-10)
(-1.39005e-07 1.47519e-07 7.48953e-05 -8.48257e-10 -2.15622e-07 8.50027e-10)
(-7.52653e-08 1.89456e-07 7.51183e-05 -1.48038e-09 -2.93708e-07 1.48444e-09)
(2.38404e-09 2.15048e-07 7.53765e-05 -2.09306e-09 -3.66807e-07 2.10084e-09)
(8.95187e-08 2.21735e-07 7.56489e-05 -2.55044e-09 -4.34556e-07 2.56357e-09)
(1.81625e-07 2.0815e-07 7.59158e-05 -2.73056e-09 -4.96521e-07 2.7507e-09)
(2.74335e-07 1.744e-07 7.61602e-05 -2.54339e-09 -5.52197e-07 2.57191e-09)
(3.63691e-07 1.22153e-07 7.63688e-05 -1.94547e-09 -6.01102e-07 1.98327e-09)
(4.4648e-07 5.45652e-08 7.65323e-05 -9.4808e-10 -6.42793e-07 9.95425e-10)
(5.2053e-07 -2.41339e-08 7.66455e-05 3.85695e-10 -6.76926e-07 -3.29228e-10)
(5.84964e-07 -1.09223e-07 7.67069e-05 1.9536e-09 -7.03269e-07 -1.88907e-09)
(6.39982e-07 -1.96026e-07 7.6718e-05 3.63157e-09 -7.21717e-07 -3.5605e-09)
(6.8697e-07 -2.80436e-07 7.6682e-05 5.29329e-09 -7.32249e-07 -5.21751e-09)
(7.28917e-07 -3.60173e-07 7.6603e-05 6.8448e-09 -7.35011e-07 -6.76617e-09)
(7.68551e-07 -4.34877e-07 7.64842e-05 8.23453e-09 -7.30264e-07 -8.15481e-09)
(8.09478e-07 -5.06254e-07 7.63271e-05 9.45777e-09 -7.18341e-07 -9.37851e-09)
(8.54412e-07 -5.78253e-07 7.61302e-05 1.05568e-08 -6.99641e-07 -1.04793e-08)
(9.06367e-07 -6.57273e-07 7.58887e-05 1.16144e-08 -6.74585e-07 -1.15398e-08)
(9.67002e-07 -7.52028e-07 7.55949e-05 1.2736e-08 -6.43583e-07 -1.26653e-08)
(1.04002e-06 -8.73184e-07 7.5251e-05 1.40285e-08 -6.07326e-07 -1.39623e-08)
(1.12426e-06 -1.03259e-06 7.48401e-05 1.5572e-08 -5.66543e-07 -1.55111e-08)
(1.21694e-06 -1.24286e-06 7.43361e-05 1.73931e-08 -5.21799e-07 -1.73383e-08)
(1.31479e-06 -1.51689e-06 7.37169e-05 1.94523e-08 -4.73788e-07 -1.94042e-08)
(1.41409e-06 -1.86645e-06 7.29592e-05 2.1622e-08 -4.23256e-07 -2.15812e-08)
(1.5122e-06 -2.30137e-06 7.20393e-05 2.36845e-08 -3.70948e-07 -2.36513e-08)
(1.60728e-06 -2.82791e-06 7.09318e-05 2.52927e-08 -3.17107e-07 -2.5267e-08)
(1.69818e-06 -3.44849e-06 6.96085e-05 2.56966e-08 -2.58949e-07 -2.56785e-08)
(1.77092e-06 -4.16831e-06 6.80381e-05 2.19981e-08 -1.78962e-07 -2.1989e-08)
(1.79401e-06 -4.99811e-06 6.61848e-05 1.40686e-08 -9.26404e-08 -1.40661e-08)
(1.77595e-06 -5.94827e-06 6.40207e-05 6.23712e-09 -3.32778e-08 -6.23689e-09)
(1.72804e-06 -7.02461e-06 6.15321e-05 -2.34003e-10 1.01152e-09 2.3401e-10)
(1.65075e-06 -8.22661e-06 5.87139e-05 -4.54052e-09 1.58845e-08 4.5408e-09)
(1.54846e-06 -9.5453e-06 5.55702e-05 -3.54286e-09 1.00083e-08 3.54308e-09)
(1.43089e-06 -1.09576e-05 5.21134e-05 7.5154e-09 -1.70817e-08 -7.51574e-09)
(1.31047e-06 -1.24169e-05 4.83519e-05 3.43765e-08 -6.25233e-08 -3.43771e-08)
(1.19567e-06 -1.384e-05 4.42657e-05 8.22259e-08 -1.18661e-07 -8.22242e-08)
(1.08479e-06 -1.50828e-05 3.9772e-05 1.5211e-07 -1.71756e-07 -1.521e-07)
(9.79694e-07 -1.58977e-05 3.46877e-05 2.32456e-07 -2.00423e-07 -2.32429e-07)
(8.25012e-07 -1.58437e-05 2.86813e-05 2.81014e-07 -1.76849e-07 -2.8097e-07)
(4.68729e-07 -1.42027e-05 2.13313e-05 2.26558e-07 -9.47692e-08 -2.26533e-07)
(9.81355e-08 -1.03747e-05 1.28362e-05 8.39521e-08 -1.80117e-08 -8.39505e-08)
(-3.45772e-08 -5.08821e-06 5.08821e-06 -4.37842e-14 -1.32382e-20 4.37842e-14)
(-1.75831e-08 -1.21432e-06 9.49135e-07 -3.82734e-09 -9.5242e-10 3.82726e-09)
(-1.74112e-09 -9.92241e-08 5.7563e-08 -2.18436e-10 -1.24889e-10 2.1843e-10)
(-3.39684e-11 -2.15906e-09 8.53131e-10 -1.00638e-12 -1.07458e-12 1.00637e-12)
(-8.71223e-14 -7.96611e-12 1.79944e-12 4.01623e-15 8.43675e-15 -4.01631e-15)
(-6.1121e-18 -1.13547e-15 8.17496e-17 4.6817e-19 3.23508e-18 -4.68205e-19)
(1.03634e-06 5.16302e-08 8.94607e-05 -4.14282e-11 -3.57484e-08 4.16922e-11)
(1.06825e-06 1.50069e-07 8.94606e-05 -3.54397e-10 -1.05193e-07 3.56722e-10)
(1.08928e-06 2.35815e-07 8.94604e-05 -9.02065e-10 -1.70357e-07 9.08198e-10)
(1.12269e-06 3.01505e-07 8.94603e-05 -1.56641e-09 -2.3127e-07 1.57781e-09)
(1.16755e-06 3.40688e-07 8.94602e-05 -2.20303e-09 -2.87655e-07 2.22087e-09)
(1.2231e-06 3.49729e-07 8.94602e-05 -2.66835e-09 -3.39028e-07 2.69349e-09)
(1.28816e-06 3.27012e-07 8.94603e-05 -2.83762e-09 -3.84875e-07 2.8706e-09)
(1.36117e-06 2.73205e-07 8.94604e-05 -2.62406e-09 -4.24597e-07 2.66502e-09)
(1.44026e-06 1.91264e-07 8.94606e-05 -1.99444e-09 -4.57617e-07 2.04309e-09)
(1.5235e-06 8.6193e-08 8.94607e-05 -9.75926e-10 -4.83379e-07 1.03152e-09)
(1.60924e-06 -3.56258e-08 8.94607e-05 3.48792e-10 -5.01399e-07 -2.8746e-10)
(1.69654e-06 -1.67317e-07 8.94605e-05 1.85705e-09 -5.11272e-07 -1.7916e-09)
(1.78505e-06 -3.02301e-07 8.94601e-05 3.40631e-09 -5.12686e-07 -3.33872e-09)
(1.87545e-06 -4.35064e-07 8.94595e-05 4.85555e-09 -5.0535e-07 -4.78799e-09)
(1.97043e-06 -5.62885e-07 8.94586e-05 6.09681e-09 -4.89142e-07 -6.03151e-09)
(2.07259e-06 -6.86028e-07 8.94576e-05 7.06201e-09 -4.64051e-07 -7.00115e-09)
(2.18635e-06 -8.07952e-07 8.94564e-05 7.71932e-09 -4.30105e-07 -7.66486e-09)
(2.31588e-06 -9.35603e-07 8.94548e-05 8.06034e-09 -3.87367e-07 -8.01395e-09)
(2.46708e-06 -1.0797e-06 8.94526e-05 8.07323e-09 -3.35823e-07 -8.03617e-09)
(2.64443e-06 -1.25441e-06 8.94496e-05 7.69755e-09 -2.75288e-07 -7.67061e-09)
(2.85313e-06 -1.47703e-06 8.9445e-05 6.78705e-09 -2.05906e-07 -6.77024e-09)
(3.09782e-06 -1.76746e-06 8.94381e-05 5.0616e-09 -1.28176e-07 -5.0538e-09)
(3.38366e-06 -2.14751e-06 8.94276e-05 2.02027e-09 -4.2056e-08 -2.01883e-09)
(3.71407e-06 -2.64065e-06 8.94113e-05 -3.11571e-09 5.26805e-08 3.11569e-09)
(4.09246e-06 -3.27059e-06 8.93863e-05 -1.14631e-08 1.56264e-07 1.14698e-08)
(4.52465e-06 -4.06098e-06 8.93484e-05 -2.45212e-08 2.68741e-07 2.45475e-08)
(5.01806e-06 -5.0345e-06 8.92915e-05 -4.41957e-08 3.89819e-07 4.42613e-08)
(5.58164e-06 -6.21333e-06 8.92074e-05 -7.27379e-08 5.18248e-07 7.28705e-08)
(6.19073e-06 -7.62582e-06 8.90858e-05 -1.13344e-07 6.55172e-07 1.13583e-07)
(6.43706e-06 -9.20342e-06 8.77767e-05 -1.66853e-07 7.84345e-07 1.67225e-07)
(6.49292e-06 -1.09889e-05 8.57483e-05 -2.35743e-07 9.01642e-07 2.36268e-07)
(6.55425e-06 -1.30505e-05 8.35152e-05 -3.23136e-07 1.00528e-06 3.23843e-07)
(6.63125e-06 -1.54177e-05 8.1119e-05 -4.29364e-07 1.08503e-06 4.30272e-07)
(6.72357e-06 -1.81266e-05 7.86162e-05 -5.50218e-07 1.1259e-06 5.51319e-07)
(6.82239e-06 -2.12128e-05 7.60573e-05 -6.72616e-07 1.10829e-06 6.73854e-07)
(6.89889e-06 -2.46969e-05 7.34416e-05 -7.69247e-07 1.01114e-06 7.70483e-07)
(6.89367e-06 -2.85432e-05 7.06445e-05 -7.94293e-07 8.20041e-07 7.95313e-07)
(6.70754e-06 -3.25657e-05 6.73077e-05 -6.87934e-07 5.43176e-07 6.88533e-07)
(6.27011e-06 -3.62427e-05 6.27056e-05 -4.08523e-07 2.3499e-07 4.08693e-07)
(5.39779e-06 -3.83958e-05 5.56269e-05 -4.71718e-08 1.7887e-08 4.71734e-08)
(3.24791e-06 -3.64779e-05 4.41323e-05 1.46017e-07 -2.80107e-08 -1.46004e-07)
(1.0036e-06 -2.72874e-05 2.72874e-05 -2.90646e-13 -8.47165e-20 2.90646e-13)
(9.81355e-08 -1.28362e-05 1.03747e-05 -8.39507e-08 -1.80118e-08 8.39523e-08)
(-5.57941e-09 -2.79454e-06 1.7625e-06 -2.13123e-08 -1.01747e-08 2.13122e-08)
(-1.67474e-09 -2.14827e-07 1.00487e-07 -8.97908e-10 -7.49715e-10 8.9788e-10)
(-5.16354e-11 -4.73962e-09 1.51223e-09 -4.9214e-12 -6.92678e-12 4.9213e-12)
(-1.63644e-13 -1.81121e-11 3.31368e-12 8.39371e-15 2.21729e-14 -8.3939e-15)
(-1.24368e-17 -2.60068e-15 1.5228e-16 1.28642e-18 1.09506e-17 -1.28658e-18)
(-2.24596e-06 6.89008e-08 8.94545e-05 -2.7519e-11 -1.79226e-08 2.74566e-11)
(-2.22144e-06 2.00305e-07 8.94545e-05 -2.34883e-10 -5.26198e-08 2.34351e-10)
(-2.18818e-06 3.14429e-07 8.94546e-05 -5.9372e-10 -8.47346e-08 5.92354e-10)
(-2.138e-06 4.01662e-07 8.94548e-05 -1.0225e-09 -1.14247e-07 1.02006e-09)
(-2.07191e-06 4.54033e-07 8.94553e-05 -1.42453e-09 -1.40835e-07 1.42089e-09)
(-1.99068e-06 4.66981e-07 8.9456e-05 -1.70419e-09 -1.63865e-07 1.69942e-09)
(-1.89546e-06 4.38613e-07 8.94571e-05 -1.78356e-09 -1.82685e-07 1.77785e-09)
(-1.78797e-06 3.69974e-07 8.94584e-05 -1.61711e-09 -1.96546e-07 1.61081e-09)
(-1.67041e-06 2.64981e-07 8.94597e-05 -1.20411e-09 -2.04734e-07 1.19764e-09)
(-1.54512e-06 1.3004e-07 8.94609e-05 -5.92177e-10 -2.06527e-07 5.86e-10)
(-1.41417e-06 -2.68587e-08 8.94619e-05 1.27998e-10 -2.01251e-07 -1.33449e-10)
(-1.2788e-06 -1.97301e-07 8.94626e-05 8.36077e-10 -1.88267e-07 -8.40467e-10)
(-1.13963e-06 -3.7349e-07 8.94628e-05 1.39803e-09 -1.66958e-07 -1.40118e-09)
(-9.96005e-07 -5.49241e-07 8.94625e-05 1.67991e-09 -1.36621e-07 -1.68181e-09)
(-8.44693e-07 -7.21972e-07 8.94619e-05 1.56132e-09 -9.66663e-08 -1.56217e-09)
(-6.82582e-07 -8.92979e-07 8.94609e-05 9.29597e-10 -4.65508e-08 -9.29786e-10)
(-5.04046e-07 -1.06764e-06 8.94594e-05 -3.41987e-10 1.43264e-08 3.41989e-10)
(-3.03561e-07 -1.25567e-06 8.94572e-05 -2.43156e-09 8.66086e-08 2.43136e-09)
(-7.29008e-08 -1.47127e-06 8.94539e-05 -5.62748e-09 1.71038e-07 5.62716e-09)
(1.94667e-07 -1.73259e-06 8.94489e-05 -1.04022e-08 2.68373e-07 1.04029e-08)
(5.08049e-07 -2.06164e-06 8.94412e-05 -1.74982e-08 3.79168e-07 1.75035e-08)
(8.74392e-07 -2.48343e-06 8.9429e-05 -2.80254e-08 5.03711e-07 2.80425e-08)
(1.30389e-06 -3.02468e-06 8.94098e-05 -4.35917e-08 6.42549e-07 4.36346e-08)
(1.8045e-06 -3.71372e-06 8.93798e-05 -6.64097e-08 7.9604e-07 6.6503e-08)
(2.38394e-06 -4.57891e-06 8.93336e-05 -9.93887e-08 9.64238e-07 9.95726e-08)
(3.05201e-06 -5.64833e-06 8.92636e-05 -1.46155e-07 1.14621e-06 1.46492e-07)
(3.81479e-06 -6.94926e-06 8.91594e-05 -2.10904e-07 1.33906e-06 2.11488e-07)
(4.67206e-06 -8.50866e-06 8.90071e-05 -2.9753e-07 1.53439e-06 2.98486e-07)
(5.6139e-06 -1.03552e-05 8.87894e-05 -4.04976e-07 1.70314e-06 4.06425e-07)
(6.58748e-06 -1.25363e-05 8.8482e-05 -5.40842e-07 1.85905e-06 5.42932e-07)
(7.59635e-06 -1.51039e-05 8.80496e-05 -7.24727e-07 2.03667e-06 7.27745e-07)
(8.63955e-06 -1.80957e-05 8.7447e-05 -9.62277e-07 2.20922e-06 9.6655e-07)
(9.66193e-06 -2.1544e-05 8.66192e-05 -1.24662e-06 2.3322e-06 1.25238e-06)
(1.05705e-05 -2.54718e-05 8.55009e-05 -1.55833e-06 2.36275e-06 1.56554e-06)
(1.12566e-05 -2.98837e-05 8.40183e-05 -1.85528e-06 2.2575e-06 1.86343e-06)
(1.16277e-05 -3.47578e-05 8.20922e-05 -2.06846e-06 1.98629e-06 2.07655e-06)
(1.16551e-05 -4.004e-05 7.96419e-05 -2.10908e-06 1.55312e-06 2.11581e-06)
(1.13826e-05 -4.56403e-05 7.65869e-05 -1.88829e-06 1.01289e-06 1.89267e-06)
(1.10353e-05 -5.14299e-05 7.28545e-05 -1.32592e-06 4.6758e-07 1.32773e-06)
(1.13669e-05 -5.72775e-05 6.83794e-05 -5.3246e-07 9.429e-08 5.32729e-07)
(8.89956e-06 -5.78672e-05 5.78672e-05 9.51482e-14 2.77403e-20 -9.51482e-14)
(3.24791e-06 -4.41323e-05 3.64779e-05 -1.46004e-07 -2.80109e-08 1.46018e-07)
(4.68728e-07 -2.13313e-05 1.42026e-05 -2.26533e-07 -9.47694e-08 2.26558e-07)
(4.96602e-08 -4.85665e-06 2.5139e-06 -5.21874e-08 -3.6917e-08 5.2192e-08)
(2.55829e-09 -3.98344e-07 1.52684e-07 -2.24259e-09 -2.496e-09 2.24271e-09)