/*--------------------------------*- C++ -*----------------------------------*\
| =========                 |                                                 |
| \\      /  F ield         | OpenFOAM: The Open Source CFD Toolbox           |
|  \\    /   O peration     | Version:  2412                                  |
|   \\  /    A nd           | Website:  www.openfoam.com                      |
|    \\/     M anipulation  |                                                 |
\*---------------------------------------------------------------------------*/
FoamFile
{
    version     2.0;
    format      ascii;
    arch        "LSB;label=32;scalar=64";
    class       volSymmTensorField;
    location    "1830";
    object      Tij2;
}
// * * * * * * * * * * * * * * * * * * * * * * * * * * * * * * * * * * * * * //

dimensions      [0 0 0 0 0 0 0];

internalField   nonuniform List<symmTensor> 
2304
(
(-1.87476e-05 2.92253e-08 -1.15865e-08 -4.55439e-11 5.48828e-10 1.87476e-05)
(-1.87817e-05 8.60654e-08 -1.15538e-08 -3.94258e-10 1.60123e-09 1.87821e-05)
(-1.88444e-05 1.39563e-07 -1.14621e-08 -1.0333e-09 2.53771e-09 1.88454e-05)
(-1.89289e-05 1.89332e-07 -1.13199e-08 -1.89323e-09 3.28128e-09 1.89307e-05)
(-1.90263e-05 2.35029e-07 -1.11405e-08 -2.9026e-09 3.75536e-09 1.90292e-05)
(-1.91275e-05 2.76499e-07 -1.09276e-08 -3.99621e-09 3.91405e-09 1.91315e-05)
(-1.92235e-05 3.13646e-07 -1.06924e-08 -5.11673e-09 3.72986e-09 1.92286e-05)
(-1.93059e-05 3.46525e-07 -1.04433e-08 -6.21936e-09 3.20075e-09 1.93121e-05)
(-1.93678e-05 3.75284e-07 -1.01922e-08 -7.27155e-09 2.35247e-09 1.9375e-05)
(-1.94041e-05 4.00198e-07 -9.94826e-09 -8.2538e-09 1.23906e-09 1.94124e-05)
(-1.94121e-05 4.21618e-07 -9.7199e-09 -9.15728e-09 -6.41642e-11 1.94212e-05)
(-1.93911e-05 4.39954e-07 -9.51114e-09 -9.98175e-09 -1.47004e-09 1.9401e-05)
(-1.93425e-05 4.5561e-07 -9.32162e-09 -1.07313e-08 -2.8897e-09 1.93532e-05)
(-1.92694e-05 4.68981e-07 -9.14801e-09 -1.14131e-08 -4.24132e-09 1.92808e-05)
(-1.9176e-05 4.8035e-07 -8.97322e-09 -1.20309e-08 -5.47534e-09 1.9188e-05)
(-1.90664e-05 4.89891e-07 -8.78703e-09 -1.25848e-08 -6.57492e-09 1.9079e-05)
(-1.89446e-05 4.97645e-07 -8.56507e-09 -1.30692e-08 -7.55872e-09 1.89577e-05)
(-1.88134e-05 5.03523e-07 -8.29191e-09 -1.34723e-08 -8.48342e-09 1.88269e-05)
(-1.86743e-05 5.07301e-07 -7.93769e-09 -1.37763e-08 -9.44774e-09 1.8688e-05)
(-1.85268e-05 5.08637e-07 -7.48772e-09 -1.39579e-08 -1.05895e-08 1.85407e-05)
(-1.83686e-05 5.07123e-07 -6.92176e-09 -1.39925e-08 -1.2086e-08 1.83826e-05)
(-1.81949e-05 5.02319e-07 -6.23234e-09 -1.38566e-08 -1.41448e-08 1.82088e-05)
(-1.79992e-05 4.93782e-07 -5.40287e-09 -1.35299e-08 -1.69821e-08 1.80127e-05)
(-1.77731e-05 4.81094e-07 -4.43854e-09 -1.29979e-08 -2.08167e-08 1.77861e-05)
(-1.75071e-05 4.63986e-07 -3.36069e-09 -1.22585e-08 -2.58456e-08 1.75193e-05)
(-1.7191e-05 4.42393e-07 -2.21182e-09 -1.1324e-08 -3.2209e-08 1.72023e-05)
(-1.68152e-05 4.16565e-07 -1.06346e-09 -1.02248e-08 -3.99214e-08 1.68254e-05)
(-1.63723e-05 3.87082e-07 3.43876e-11 -9.006e-09 -4.88347e-08 1.63813e-05)
(-1.58585e-05 3.54742e-07 1.14672e-09 -7.71762e-09 -5.87962e-08 1.58662e-05)
(-1.52716e-05 3.19233e-07 2.70719e-09 -6.35161e-09 -7.01444e-08 1.5278e-05)
(-1.4604e-05 2.7978e-07 4.53273e-09 -4.88508e-09 -8.33767e-08 1.46089e-05)
(-1.38472e-05 2.36792e-07 6.35759e-09 -3.34936e-09 -9.85643e-08 1.38505e-05)
(-1.29951e-05 1.9133e-07 8.0453e-09 -1.79203e-09 -1.15536e-07 1.29969e-05)
(-1.20449e-05 1.4484e-07 9.42172e-09 -2.54745e-10 -1.33943e-07 1.20452e-05)
(-1.09982e-05 9.93026e-08 1.02274e-08 1.231e-09 -1.53053e-07 1.0997e-05)
(-9.86365e-06 5.72905e-08 1.01496e-08 2.64997e-09 -1.7156e-07 9.861e-06)
(-8.6601e-06 2.17747e-08 8.92436e-09 4.00778e-09 -1.87547e-07 8.65609e-06)
(-7.41842e-06 -4.43124e-09 6.50062e-09 5.32479e-09 -1.98724e-07 7.4131e-06)
(-6.18029e-06 -1.9566e-08 3.21936e-09 6.6134e-09 -2.02996e-07 6.17367e-06)
(-4.99293e-06 -2.38209e-08 -1.38975e-10 7.85045e-09 -1.99253e-07 4.98508e-06)
(-3.90025e-06 -1.99071e-08 -2.48644e-09 8.97953e-09 -1.87994e-07 3.89127e-06)
(-2.93329e-06 -1.25552e-08 -3.07287e-09 9.96309e-09 -1.71134e-07 2.92333e-06)
(-2.10642e-06 -6.05976e-09 -2.32599e-09 1.0841e-08 -1.50854e-07 2.09558e-06)
(-1.42186e-06 -2.17033e-09 -1.25654e-09 1.17216e-08 -1.28586e-07 1.41014e-06)
(-8.76326e-07 -5.06267e-10 -4.86065e-10 1.27452e-08 -1.04913e-07 8.6358e-07)
(-4.65386e-07 -4.18723e-11 -1.16483e-10 1.41235e-08 -7.98335e-08 4.51263e-07)
(-1.8634e-07 8.25414e-12 -1.06734e-11 1.63644e-08 -5.27404e-08 1.69976e-07)
(-4.24432e-08 6.82817e-13 -6.8235e-13 2.12216e-08 -2.12216e-08 2.12216e-08)
(-0.000641042 8.92871e-07 3.40379e-07 -1.23878e-09 5.53026e-08 0.000641043)
(-0.000642204 2.62983e-06 3.53908e-07 -1.0728e-08 1.61271e-07 0.000642215)
(-0.000644333 4.26536e-06 3.65985e-07 -2.81327e-08 2.55356e-07 0.000644362)
(-0.000647205 5.78893e-06 3.84021e-07 -5.16079e-08 3.29474e-07 0.000647257)
(-0.000650518 7.19097e-06 4.06426e-07 -7.92686e-08 3.75605e-07 0.000650597)
(-0.000653961 8.46669e-06 4.31759e-07 -1.09378e-07 3.88937e-07 0.00065407)
(-0.000657225 9.61289e-06 4.58294e-07 -1.40391e-07 3.66579e-07 0.000657365)
(-0.000660029 1.06302e-05 4.84391e-07 -1.71054e-07 3.08304e-07 0.0006602)
(-0.000662137 1.15218e-05 5.08393e-07 -2.00414e-07 2.16796e-07 0.000662338)
(-0.000663378 1.22944e-05 5.28934e-07 -2.27837e-07 9.77013e-08 0.000663606)
(-0.000663655 1.2957e-05 5.45e-07 -2.52966e-07 -4.10964e-08 0.000663907)
(-0.000662946 1.352e-05 5.56132e-07 -2.75678e-07 -1.90476e-07 0.000663222)
(-0.0006613 1.39945e-05 5.624e-07 -2.95991e-07 -3.41125e-07 0.000661596)
(-0.000658818 1.43912e-05 5.64422e-07 -3.14023e-07 -4.84467e-07 0.000659132)
(-0.000655642 1.47183e-05 5.63779e-07 -3.29851e-07 -6.15296e-07 0.000655972)
(-0.000651914 1.49811e-05 5.61891e-07 -3.43476e-07 -7.31851e-07 0.000652258)
(-0.000647768 1.5182e-05 5.60896e-07 -3.54781e-07 -8.36071e-07 0.000648123)
(-0.000643298 1.53196e-05 5.62544e-07 -3.63507e-07 -9.33897e-07 0.000643662)
(-0.000638558 1.53894e-05 5.69128e-07 -3.69256e-07 -1.03566e-06 0.000638927)
(-0.000633532 1.5384e-05 5.82071e-07 -3.71512e-07 -1.15577e-06 0.000633903)
(-0.000628135 1.52937e-05 6.02759e-07 -3.69686e-07 -1.31283e-06 0.000628505)
(-0.000622186 1.51074e-05 6.31559e-07 -3.63147e-07 -1.52867e-06 0.000622549)
(-0.000615484 1.48156e-05 6.68767e-07 -3.51312e-07 -1.82601e-06 0.000615836)
(-0.00060775 1.4409e-05 7.13206e-07 -3.33582e-07 -2.22785e-06 0.000608084)
(-0.000598663 1.38822e-05 7.62386e-07 -3.094e-07 -2.75505e-06 0.000598972)
(-0.00058788 1.3234e-05 8.12292e-07 -2.7821e-07 -3.42269e-06 0.000588158)
(-0.000575074 1.24698e-05 8.57183e-07 -2.3952e-07 -4.23292e-06 0.000575314)
(-0.000559987 1.16022e-05 8.92744e-07 -1.92996e-07 -5.17051e-06 0.00056018)
(-0.000542478 1.06514e-05 9.24512e-07 -1.38276e-07 -6.21886e-06 0.000542617)
(-0.000522489 9.61956e-06 9.7698e-07 -7.24476e-08 -7.41299e-06 0.000522561)
(-0.000499758 8.49995e-06 1.04044e-06 9.98749e-09 -8.80588e-06 0.000499748)
(-0.000474001 7.30783e-06 1.09773e-06 1.15089e-07 -1.04055e-05 0.000473886)
(-0.000445027 6.07013e-06 1.13963e-06 2.50719e-07 -1.21946e-05 0.000444777)
(-0.000412743 4.82044e-06 1.15528e-06 4.27596e-07 -1.41381e-05 0.000412315)
(-0.000377195 3.60177e-06 1.12886e-06 6.58339e-07 -1.61609e-05 0.000376537)
(-0.000338658 2.46715e-06 1.04207e-06 9.54205e-07 -1.81267e-05 0.000337704)
(-0.000297737 1.476e-06 8.80932e-07 1.31899e-06 -1.98322e-05 0.000296418)
(-0.000255431 6.85419e-07 6.46059e-07 1.74119e-06 -2.10301e-05 0.00025369)
(-0.000213118 1.36438e-07 3.63112e-07 2.18904e-06 -2.14886e-05 0.000210929)
(-0.000172409 -1.58874e-07 8.54745e-08 2.61656e-06 -2.1078e-05 0.000169792)
(-0.000134827 -2.33163e-07 -1.14218e-07 2.98495e-06 -1.98392e-05 0.000131842)
(-0.000101643 -1.75699e-07 -1.85201e-07 3.29138e-06 -1.7993e-05 9.83511e-05)
(-7.34259e-05 -8.88681e-08 -1.53912e-07 3.56424e-06 -1.57803e-05 6.98616e-05)
(-5.02415e-05 -2.90489e-08 -8.9374e-08 3.83789e-06 -1.33452e-05 4.64036e-05)
(-3.18656e-05 -3.0358e-09 -3.79523e-08 4.12607e-06 -1.06984e-05 2.77395e-05)
(-1.75495e-05 2.68419e-09 -1.05139e-08 4.25986e-06 -7.5241e-06 1.32897e-05)
(-5.6079e-06 9.99491e-10 -9.99467e-10 2.80395e-06 -2.80395e-06 2.80395e-06)
(-1.8634e-07 1.06749e-11 -8.25257e-12 1.69976e-07 -5.27404e-08 1.63644e-08)
(-0.00532154 6.46099e-06 5.80542e-06 -7.72418e-09 7.92728e-07 0.00532155)
(-0.00533019 1.90203e-05 5.91196e-06 -6.68514e-08 2.3115e-06 0.00533026)
(-0.00534601 3.08423e-05 6.01989e-06 -1.75385e-07 3.65854e-06 0.00534618)
(-0.00536728 4.18719e-05 6.18472e-06 -3.22423e-07 4.71816e-06 0.0053676)
(-0.00539176 5.20422e-05 6.39563e-06 -4.96837e-07 5.37583e-06 0.00539226)
(-0.00541712 6.13198e-05 6.64258e-06 -6.88249e-07 5.56313e-06 0.00541781)
(-0.00544108 6.96815e-05 6.91332e-06 -8.87163e-07 5.23947e-06 0.00544197)
(-0.00546156 7.71257e-05 7.1954e-06 -1.08542e-06 4.40213e-06 0.00546265)
(-0.00547684 8.36674e-05 7.47541e-06 -1.27628e-06 3.08969e-06 0.00547812)
(-0.00548567 8.93414e-05 7.74129e-06 -1.45463e-06 1.38262e-06 0.00548712)
(-0.00548734 9.41974e-05 7.98318e-06 -1.61698e-06 -6.0717e-07 0.00548896)
(-0.00548171 9.82965e-05 8.19559e-06 -1.76139e-06 -2.75051e-06 0.00548347)
(-0.0054691 0.000101703 8.37732e-06 -1.88713e-06 -4.91555e-06 0.00547099)
(-0.00545025 0.000104483 8.53256e-06 -1.99446e-06 -6.98084e-06 0.00545224)
(-0.00542615 0.00010669 8.67545e-06 -2.08381e-06 -8.87265e-06 0.00542823)
(-0.00539779 0.000108363 8.81939e-06 -2.15546e-06 -1.05662e-05 0.00539994)
(-0.00536609 0.000109526 8.98576e-06 -2.20908e-06 -1.20892e-05 0.0053683)
(-0.00533171 0.000110182 9.19343e-06 -2.24361e-06 -1.35267e-05 0.00533395)
(-0.00529494 0.00011032 9.46738e-06 -2.25702e-06 -1.50259e-05 0.0052972)
(-0.00525563 0.000109916 9.82491e-06 -2.24645e-06 -1.67921e-05 0.00525788)
(-0.00521339 0.000108935 1.02809e-05 -2.20789e-06 -1.90932e-05 0.0052156)
(-0.0051675 0.00010734 1.08429e-05 -2.13585e-06 -2.22465e-05 0.00516963)
(-0.00511574 0.000105077 1.15167e-05 -2.02268e-06 -2.65773e-05 0.00511777)
(-0.00505601 0.000102115 1.2291e-05 -1.85773e-06 -3.24187e-05 0.00505787)
(-0.00498588 9.84346e-05 1.31393e-05 -1.62542e-06 -4.00775e-05 0.0049875)
(-0.00490274 9.4031e-05 1.40183e-05 -1.30338e-06 -4.97869e-05 0.00490404)
(-0.00480401 8.89146e-05 1.48622e-05 -8.62673e-07 -6.16088e-05 0.00480487)
(-0.00468746 8.31277e-05 1.56083e-05 -2.71416e-07 -7.53624e-05 0.00468774)
(-0.00455171 7.68072e-05 1.6281e-05 5.05926e-07 -9.08311e-05 0.0045512)
(-0.00439611 7.00646e-05 1.70995e-05 1.55026e-06 -0.000108525 0.00439456)
(-0.00421847 6.29681e-05 1.79613e-05 3.00551e-06 -0.000129223 0.00421547)
(-0.00401642 5.56429e-05 1.86844e-05 5.05208e-06 -0.000153082 0.00401137)
(-0.00378827 4.82172e-05 1.91617e-05 7.9272e-06 -0.000179921 0.00378034)
(-0.00353295 4.08013e-05 1.92618e-05 1.19473e-05 -0.00020932 0.00352101)
(-0.00325027 3.35033e-05 1.87947e-05 1.74856e-05 -0.000240278 0.00323279)
(-0.00294157 2.64352e-05 1.7538e-05 2.48887e-05 -0.000270868 0.00291668)
(-0.00261054 1.97258e-05 1.53057e-05 3.43153e-05 -0.000298091 0.00257622)
(-0.00226388 1.35545e-05 1.20559e-05 4.55149e-05 -0.000318115 0.00221836)
(-0.0019116 8.18954e-06 8.01633e-06 5.76597e-05 -0.000327087 0.00185394)
(-0.00156664 4.04943e-06 3.75698e-06 6.94498e-05 -0.000322486 0.00149719)
(-0.00124415 1.55017e-06 2.43733e-07 7.97633e-05 -0.00030475 0.00116438)
(-0.000954439 5.37529e-07 -1.5615e-06 8.81937e-05 -0.000276396 0.000866246)
(-0.000703617 3.23306e-07 -1.71725e-06 9.50267e-05 -0.000240482 0.00060859)
(-0.000490645 3.03631e-07 -1.11049e-06 9.96313e-05 -0.000197376 0.000391014)
(-0.000302964 2.31706e-07 -4.75733e-07 9.56549e-05 -0.000140819 0.000207309)
(-0.000125705 9.76111e-08 -9.7611e-08 6.28526e-05 -6.28526e-05 6.28526e-05)
(-1.75495e-05 1.05139e-08 -2.68414e-09 1.32897e-05 -7.52409e-06 4.25985e-06)
(-4.65386e-07 1.16486e-10 4.18748e-11 4.51262e-07 -7.98334e-08 1.41234e-08)
(-0.0184068 1.87735e-05 -6.46334e-05 -1.8236e-08 4.16118e-06 0.0184068)
(-0.0184293 5.52666e-05 -6.49377e-05 -1.58005e-07 1.21302e-05 0.0184295)
(-0.0184704 8.96158e-05 -6.48282e-05 -4.15513e-07 1.91891e-05 0.0184708)
(-0.0185255 0.000121699 -6.46254e-05 -7.67533e-07 2.47483e-05 0.0185263)
(-0.0185888 0.000151357 -6.43055e-05 -1.19111e-06 2.82282e-05 0.01859)
(-0.0186543 0.000178503 -6.38372e-05 -1.66401e-06 2.92882e-05 0.0186559)
(-0.0187161 0.000203075 -6.31983e-05 -2.16434e-06 2.77329e-05 0.0187183)
(-0.0187691 0.000225053 -6.23764e-05 -2.67079e-06 2.35578e-05 0.0187718)
(-0.0188089 0.00024445 -6.13735e-05 -3.1631e-06 1.69649e-05 0.018812)
(-0.0188324 0.000261324 -6.02011e-05 -3.6232e-06 8.36144e-06 0.0188361)
(-0.018838 0.000275765 -5.8877e-05 -4.03651e-06 -1.69228e-06 0.018842)
(-0.0188252 0.000287891 -5.74165e-05 -4.39309e-06 -1.25546e-05 0.0188296)
(-0.0187947 0.000297834 -5.58297e-05 -4.68785e-06 -2.35728e-05 0.0187994)
(-0.0187484 0.000305738 -5.41135e-05 -4.92038e-06 -3.41485e-05 0.0187533)
(-0.0186883 0.000311736 -5.2231e-05 -5.09269e-06 -4.39206e-05 0.0186934)
(-0.0186169 0.000315945 -5.01451e-05 -5.20743e-06 -5.27746e-05 0.0186222)
(-0.0185363 0.000318458 -4.77845e-05 -5.266e-06 -6.08604e-05 0.0185415)
(-0.0184476 0.000319347 -4.50784e-05 -5.2672e-06 -6.86197e-05 0.0184529)
(-0.0183516 0.000318665 -4.19252e-05 -5.20588e-06 -7.68139e-05 0.0183568)
(-0.0182475 0.000316465 -3.82426e-05 -5.07207e-06 -8.65051e-05 0.0182525)
(-0.0181347 0.000312774 -3.39524e-05 -4.84676e-06 -9.90805e-05 0.0181395)
(-0.0180115 0.000307587 -2.8989e-05 -4.49705e-06 -0.000116171 0.018016)
(-0.0178714 0.000300884 -2.32733e-05 -3.97104e-06 -0.000139469 0.0178754)
(-0.0177088 0.000292704 -1.67887e-05 -3.1861e-06 -0.000170746 0.017712)
(-0.0175172 0.000283086 -9.56646e-06 -2.01287e-06 -0.00021167 0.0175192)
(-0.0172895 0.000272033 -1.6924e-06 -2.58795e-07 -0.000263624 0.0172897)
(-0.0170181 0.000259468 6.65256e-06 2.33609e-06 -0.000327278 0.0170157)
(-0.0166957 0.000245278 1.52107e-05 6.08247e-06 -0.000402254 0.0166896)
(-0.0163161 0.000229707 2.37979e-05 1.13528e-05 -0.000487974 0.0163048)
(-0.0158751 0.000213553 3.27175e-05 1.88465e-05 -0.000587223 0.0158563)
(-0.015365 0.000197765 4.17923e-05 2.97505e-05 -0.000704215 0.0153353)
(-0.0147776 0.00018281 5.06504e-05 4.56223e-05 -0.00084044 0.014732)
(-0.0141058 0.000168753 5.89885e-05 6.85585e-05 -0.000995967 0.0140372)
(-0.0133432 0.00015535 6.63043e-05 0.000101399 -0.00116974 0.0132418)
(-0.0124849 0.000141997 7.18075e-05 0.000147623 -0.00135767 0.0123373)
(-0.0115286 0.000127672 7.44646e-05 0.000210778 -0.00155051 0.0113179)
(-0.0104771 0.00011106 7.31036e-05 0.000293241 -0.00173237 0.0101838)
(-0.00933971 9.10431e-05 6.65905e-05 0.000394268 -0.00188082 0.00894544)
(-0.00813535 6.75261e-05 5.41343e-05 0.000507976 -0.00196994 0.00762737)
(-0.00689447 4.30205e-05 3.57846e-05 0.000622772 -0.00197693 0.0062717)
(-0.00566292 2.30371e-05 1.48901e-05 0.0007252 -0.00189242 0.00493772)
(-0.00447769 1.11268e-05 -6.12735e-07 0.000803911 -0.00171853 0.00367378)
(-0.00334868 5.94001e-06 -6.3473e-06 0.000843284 -0.00145352 0.00250539)
(-0.0022354 3.73818e-06 -5.07267e-06 0.000794068 -0.00106982 0.00144133)
(-0.00112281 1.9026e-06 -1.9026e-06 0.000561406 -0.000561406 0.000561406)
(-0.000302964 4.75733e-07 -2.31706e-07 0.000207309 -0.000140819 9.56547e-05)
(-3.18655e-05 3.79523e-08 3.03585e-09 2.77395e-05 -1.06984e-05 4.12607e-06)
(-8.76325e-07 4.86069e-10 5.0627e-10 8.6358e-07 -1.04913e-07 1.27452e-08)
(-0.0344674 2.80449e-05 -0.000222327 -1.9451e-08 1.09553e-05 0.0344675)
(-0.0344939 8.27484e-05 -0.000222363 -1.69976e-07 3.19028e-05 0.0344941)
(-0.0345421 0.000134349 -0.000220379 -4.51537e-07 5.03762e-05 0.0345426)
(-0.0346066 0.000182559 -0.000217603 -8.45796e-07 6.48404e-05 0.0346074)
(-0.0346806 0.000227285 -0.000214187 -1.33834e-06 7.38106e-05 0.0346819)
(-0.0347574 0.000268395 -0.000210267 -1.91147e-06 7.64327e-05 0.0347593)
(-0.0348304 0.00030577 -0.000205989 -2.5418e-06 7.22448e-05 0.034833)
(-0.0348941 0.000339315 -0.000201502 -3.19862e-06 6.12788e-05 0.0348973)
(-0.0349437 0.000368967 -0.000196954 -3.8453e-06 4.40879e-05 0.0349476)
(-0.0349761 0.000394708 -0.000192475 -4.44329e-06 2.17311e-05 0.0349806)
(-0.0349894 0.000416565 -0.000188161 -4.9581e-06 -4.36339e-06 0.0349943)
(-0.0349831 0.00043461 -0.000184058 -5.36452e-06 -3.25843e-05 0.0349885)
(-0.034958 0.000448948 -0.000180163 -5.64977e-06 -6.13112e-05 0.0349636)
(-0.0349156 0.000459734 -0.000176416 -5.81402e-06 -8.90804e-05 0.0349215)
(-0.0348582 0.00046714 -0.000172664 -5.86517e-06 -0.000115034 0.0348641)
(-0.0347877 0.000471363 -0.000168758 -5.81342e-06 -0.00013895 0.0347935)
(-0.0347059 0.000472608 -0.000164484 -5.6652e-06 -0.00016129 0.0347115)
(-0.0346136 0.000471097 -0.000159657 -5.41804e-06 -0.000183277 0.034619)
(-0.0345107 0.000467062 -0.000154053 -5.05442e-06 -0.000206974 0.0345158)
(-0.0343961 0.000460781 -0.000147505 -4.5358e-06 -0.000235267 0.0344006)
(-0.0342694 0.000452501 -0.000139739 -3.78848e-06 -0.000271813 0.0342732)
(-0.0341278 0.000442407 -0.000130729 -2.68484e-06 -0.000320838 0.0341305)
(-0.0339634 0.00043072 -0.000120488 -1.01695e-06 -0.000386886 0.0339644)
(-0.0337694 0.000417723 -0.000109079 1.55154e-06 -0.000474782 0.0337679)
(-0.033538 0.000403669 -9.66251e-05 5.54151e-06 -0.000589174 0.0335325)
(-0.0332607 0.000388667 -8.32684e-05 1.17245e-05 -0.000734224 0.033249)
(-0.0329279 0.000372519 -6.92497e-05 2.11634e-05 -0.000912838 0.0329068)
(-0.0325293 0.000354464 -5.49539e-05 3.52254e-05 -0.00112618 0.0324941)
(-0.0320534 0.000333188 -4.06594e-05 5.57282e-05 -0.00137555 0.0319977)
(-0.0314852 0.000311456 -2.11066e-05 8.56563e-05 -0.00166871 0.0313996)
(-0.0308146 0.000294977 8.14787e-07 0.000129739 -0.0020165 0.0306849)
(-0.0300315 0.000285008 2.24104e-05 0.000194495 -0.00242549 0.029837)
(-0.0291243 0.00028093 4.34032e-05 0.000288904 -0.00289981 0.0288354)
(-0.0280809 0.000281858 6.33924e-05 0.000425239 -0.00344097 0.0276557)
(-0.0268898 0.000285741 8.20295e-05 0.000619025 -0.0040431 0.0262707)
(-0.0255392 0.000288703 9.91961e-05 0.000887503 -0.004687 0.0246517)
(-0.0240164 0.000284794 0.000114775 0.00124564 -0.00533438 0.0227708)
(-0.0223042 0.000266546 0.000127583 0.00169894 -0.00592386 0.0206053)
(-0.0203773 0.00022632 0.000133097 0.00223315 -0.00637057 0.0181442)
(-0.0181962 0.000163442 0.000119352 0.00280164 -0.00657006 0.0153946)
(-0.0157101 9.50871e-05 7.59784e-05 0.00331848 -0.00641339 0.0123916)
(-0.0128424 4.39305e-05 2.34341e-05 0.00365469 -0.00579472 0.00918766)
(-0.00946626 1.93953e-05 -7.68471e-06 0.00359015 -0.00459304 0.00587611)
(-0.00563026 1.10237e-05 -1.10237e-05 0.00281513 -0.00281513 0.00281513)
(-0.0022354 5.07267e-06 -3.73818e-06 0.00144133 -0.00106982 0.000794067)
(-0.000490645 1.11049e-06 -3.03631e-07 0.000391014 -0.000197376 9.96312e-05)
(-5.02415e-05 8.93741e-08 2.9049e-08 4.64036e-05 -1.33452e-05 3.83788e-06)
(-1.42186e-06 1.25654e-09 2.17033e-09 1.41014e-06 -1.28586e-07 1.17216e-08)
(-0.0446904 2.72035e-05 -2.11208e-05 -8.2732e-09 1.92543e-05 0.0446904)
(-0.044712 8.04742e-05 -1.84779e-05 -7.47356e-08 5.60098e-05 0.0447121)
(-0.0447517 0.00013086 -1.41008e-05 -2.08726e-07 8.82429e-05 0.0447519)
(-0.0448047 0.00017795 -7.93135e-06 -4.20525e-07 0.000113245 0.0448051)
(-0.0448659 0.000221743 -3.97706e-07 -7.27831e-07 0.00012847 0.0448666)
(-0.0449303 0.000262037 8.08977e-06 -1.13706e-06 0.000132467 0.0449315)
(-0.0449933 0.000298607 1.71157e-05 -1.63623e-06 0.000124503 0.0449949)
(-0.0450508 0.000331212 2.62777e-05 -2.19036e-06 0.000104707 0.045053)
(-0.0450997 0.000359639 3.5207e-05 -2.74472e-06 7.41065e-05 0.0451025)
(-0.045138 0.000383717 4.3596e-05 -3.23447e-06 3.45648e-05 0.0451412)
(-0.0451644 0.000403341 5.12254e-05 -3.59892e-06 -1.14578e-05 0.045168)
(-0.0451787 0.000418471 5.79904e-05 -3.79417e-06 -6.12354e-05 0.0451825)
(-0.0451811 0.000429137 6.38826e-05 -3.80061e-06 -0.000112078 0.0451849)
(-0.0451726 0.000435456 6.9007e-05 -3.62382e-06 -0.000161625 0.0451762)
(-0.045154 0.000437593 7.36329e-05 -3.28352e-06 -0.000208572 0.0451573)
(-0.0451261 0.00043578 7.80163e-05 -2.80068e-06 -0.000252737 0.0451289)
(-0.0450891 0.000430277 8.2515e-05 -2.18356e-06 -0.000295145 0.0450913)
(-0.0450428 0.000421389 8.74169e-05 -1.41439e-06 -0.00033816 0.0450442)
(-0.0449859 0.000409409 9.3057e-05 -4.32554e-07 -0.000385624 0.0449863)
(-0.0449165 0.000394641 9.96522e-05 8.84889e-07 -0.000442816 0.0449156)
(-0.0448352 0.00037741 0.000107621 2.75222e-06 -0.000516212 0.0448324)
(-0.0447378 0.000358033 0.000116917 5.52466e-06 -0.000613203 0.0447323)
(-0.044618 0.000336794 0.00012734 9.77927e-06 -0.000741902 0.0446082)
(-0.0444704 0.000313914 0.000138626 1.64313e-05 -0.000910928 0.044454)
(-0.0442893 0.000289618 0.000150454 2.68666e-05 -0.00112869 0.0442624)
(-0.0440684 0.000263986 0.00016259 4.31082e-05 -0.00140303 0.0440253)
(-0.0438013 0.00023681 0.000174845 6.79594e-05 -0.00174046 0.0437333)
(-0.0434802 0.000207053 0.000187039 0.000105179 -0.00214615 0.043375)
(-0.0430965 0.000170954 0.000197424 0.000160244 -0.00262849 0.0429363)
(-0.0426398 0.000134533 0.000202793 0.000241294 -0.00320076 0.0423985)
(-0.0421011 0.000108334 0.000204717 0.000360136 -0.00387783 0.041741)
(-0.0414749 9.37126e-05 0.000204829 0.00053359 -0.00467394 0.0409413)
(-0.0407573 8.97417e-05 0.000203561 0.000784853 -0.00560086 0.0399724)
(-0.0399468 9.63764e-05 0.000202078 0.00114494 -0.00666512 0.0388018)
(-0.039044 0.000113157 0.000202471 0.0016529 -0.00786179 0.0373911)
(-0.0380475 0.000138519 0.00020744 0.0023531 -0.00916569 0.0356944)
(-0.0369432 0.000169214 0.000219216 0.00328795 -0.0105212 0.0336553)
(-0.0356864 0.000199031 0.000237689 0.00448376 -0.011831 0.0312026)
(-0.0341685 0.000211609 0.000257782 0.00592648 -0.0129408 0.028242)
(-0.0321494 0.000182572 0.000254923 0.00751149 -0.0136068 0.0246379)
(-0.0291406 0.000116692 0.00018438 0.00894732 -0.0134428 0.0201933)
(-0.0244384 4.55713e-05 6.7969e-05 0.009656 -0.0119475 0.0147824)
(-0.0175332 9.92892e-06 -9.92906e-06 0.00876662 -0.00876661 0.00876661)
(-0.00946626 7.68467e-06 -1.93954e-05 0.00587612 -0.00459304 0.00359014)
(-0.00334867 6.34729e-06 -5.94001e-06 0.00250539 -0.00145352 0.000843283)
(-0.000703616 1.71725e-06 -3.23306e-07 0.00060859 -0.000240482 9.50266e-05)
(-7.34258e-05 1.53912e-07 8.8868e-08 6.98616e-05 -1.57803e-05 3.56424e-06)
(-2.10642e-06 2.32599e-09 6.05976e-09 2.09558e-06 -1.50854e-07 1.0841e-08)
(-0.0480487 1.98805e-05 9.27569e-05 8.11518e-09 2.79754e-05 0.0480487)
(-0.0480486 5.85995e-05 9.55263e-05 6.6693e-08 8.13371e-05 0.0480486)
(-0.0480485 9.50443e-05 9.72548e-05 1.53471e-07 0.000127858 0.0480484)
(-0.0480484 0.00012908 0.000100059 2.12493e-07 0.000163595 0.0480482)
(-0.0480482 0.000160504 0.000103896 1.8015e-07 0.000185088 0.0480481)
(-0.0480481 0.00018903 0.000108738 1.49753e-08 0.000190386 0.048048)
(-0.0480479 0.000214347 0.000114513 -2.87334e-07 0.000178619 0.0480482)
(-0.0480477 0.000236109 0.000121108 -6.86148e-07 0.00015014 0.0480484)
(-0.0480475 0.000254002 0.000128361 -1.10228e-06 0.000106527 0.0480486)
(-0.0480473 0.000267759 0.000136093 -1.43625e-06 5.04573e-05 0.0480488)
(-0.0480472 0.000277187 0.000144134 -1.59382e-06 -1.46551e-05 0.0480488)
(-0.0480471 0.000282163 0.000152364 -1.5081e-06 -8.5129e-05 0.0480486)
(-0.048047 0.00028264 0.000160713 -1.15167e-06 -0.000157441 0.0480482)
(-0.048047 0.000278669 0.000169206 -5.36235e-07 -0.00022864 0.0480475)
(-0.048047 0.000270337 0.000178056 3.07352e-07 -0.000297269 0.0480467)
(-0.048047 0.000257792 0.000187481 1.35344e-06 -0.000363476 0.0480457)
(-0.048047 0.000241192 0.000197872 2.60724e-06 -0.000429123 0.0480444)
(-0.048047 0.000220714 0.000209604 4.13174e-06 -0.000497951 0.0480429)
(-0.048047 0.000196445 0.000223212 6.08174e-06 -0.000575731 0.0480409)
(-0.0480469 0.000168405 0.000239091 8.74511e-06 -0.00067009 0.0480381)
(-0.0480466 0.000136648 0.000257686 1.26101e-05 -0.000790344 0.048034)
(-0.0480462 0.000101273 0.000279363 1.84736e-05 -0.000947212 0.0480278)
(-0.0480456 6.21643e-05 0.000304483 2.76034e-05 -0.00115243 0.048018)
(-0.0480448 1.89852e-05 0.000333195 4.19749e-05 -0.00141862 0.0480028)
(-0.0480436 -2.85586e-05 0.000365571 6.45452e-05 -0.00175849 0.047979)
(-0.0480419 -8.07835e-05 0.000401813 9.96089e-05 -0.00218462 0.0479423)
(-0.0480397 -0.000137768 0.000442189 0.000153177 -0.0027089 0.0478865)
(-0.0480368 -0.000198712 0.000487069 0.000233457 -0.00334265 0.0478033)
(-0.0480332 -0.000263356 0.00053371 0.00035197 -0.00409995 0.0476812)
(-0.0477837 -0.000327056 0.000549617 0.000523542 -0.00497862 0.0472602)
(-0.0473893 -0.00038917 0.000547986 0.000771508 -0.00600232 0.0466178)
(-0.046965 -0.00044846 0.000543931 0.00112797 -0.0071958 0.045837)
(-0.0465267 -0.000501337 0.000538226 0.00163438 -0.00857052 0.0448923)
(-0.0460973 -0.00054311 0.00053135 0.00234411 -0.0101309 0.0437532)
(-0.0457022 -0.000567028 0.000524539 0.0033214 -0.0118662 0.0423808)
(-0.0453586 -0.000564606 0.000519715 0.00463638 -0.0137404 0.0407223)
(-0.0450553 -0.000527075 0.000519368 0.00635354 -0.0156791 0.0387018)
(-0.0447172 -0.000447345 0.000526066 0.00850919 -0.0175501 0.036208)
(-0.0441498 -0.000336704 0.000541193 0.0110711 -0.019135 0.0330787)
(-0.0429461 -0.000244495 0.000525877 0.01386 -0.020078 0.0290861)
(-0.0401908 -0.000159111 0.000361473 0.0163093 -0.0197358 0.0238815)
(-0.0343253 -0.000105205 0.000105205 0.0171627 -0.0171627 0.0171627)
(-0.0244384 -6.79692e-05 -4.55716e-05 0.0147824 -0.0119475 0.00965599)
(-0.0128423 -2.34342e-05 -4.39305e-05 0.00918766 -0.00579471 0.00365469)
(-0.00447769 6.12719e-07 -1.11268e-05 0.00367378 -0.00171853 0.000803909)
(-0.000954439 1.56149e-06 -5.3753e-07 0.000866245 -0.000276396 8.81935e-05)
(-0.000101642 1.85201e-07 1.75699e-07 9.83511e-05 -1.7993e-05 3.29138e-06)
(-2.93329e-06 3.07287e-09 1.25552e-08 2.92333e-06 -1.71134e-07 9.96308e-09)
(-0.0480468 1.06545e-05 -0.000201065 2.58503e-08 3.68436e-05 0.0480468)
(-0.0480469 3.11129e-05 -0.000198931 2.18279e-07 0.00010711 0.0480467)
(-0.048047 5.01019e-05 -0.00019606 5.35206e-07 0.000168126 0.0480464)
(-0.0480471 6.77506e-05 -0.000191695 8.62852e-07 0.000214735 0.0480462)
(-0.0480472 8.3646e-05 -0.000185898 1.07836e-06 0.000242664 0.0480461)
(-0.0480474 9.74198e-05 -0.000178709 1.09624e-06 0.00024947 0.0480463)
(-0.0480476 0.000108668 -0.000170207 8.94198e-07 0.000234144 0.0480467)
(-0.0480478 0.000116949 -0.000160534 5.24916e-07 0.000197249 0.0480473)
(-0.0480481 0.000121861 -0.000149886 1.04996e-07 0.00014089 0.048048)
(-0.0480483 0.000123043 -0.000138487 -2.15287e-07 6.85007e-05 0.0480485)
(-0.0480486 0.000120218 -0.00012655 -2.92454e-07 -1.5631e-05 0.0480489)
(-0.0480488 0.000113164 -0.000114219 -2.41743e-08 -0.000106995 0.0480489)
(-0.0480491 0.00010171 -0.000101587 6.336e-07 -0.000201413 0.0480485)
(-0.0480493 8.57824e-05 -8.86298e-05 1.66999e-06 -0.000295573 0.0480477)
(-0.0480496 6.52915e-05 -7.50862e-05 3.05128e-06 -0.000388103 0.0480465)
(-0.0480497 4.01853e-05 -6.07017e-05 4.76168e-06 -0.000479718 0.048045)
(-0.0480499 1.03779e-05 -4.49979e-05 6.84625e-06 -0.000573327 0.048043)
(-0.04805 -2.42261e-05 -2.75152e-05 9.4588e-06 -0.000674189 0.0480405)
(-0.04805 -6.38523e-05 -7.5765e-06 1.29224e-05 -0.000789977 0.048037)
(-0.0480498 -0.00010873 1.53217e-05 1.7808e-05 -0.000930497 0.048032)
(-0.0480495 -0.000159122 4.1818e-05 2.50704e-05 -0.00110766 0.0480244)
(-0.0480488 -0.000215281 7.23116e-05 3.62414e-05 -0.00133497 0.0480126)
(-0.0480478 -0.000277573 0.000107369 5.36943e-05 -0.00162689 0.0479941)
(-0.0480463 -0.0003465 0.000147221 8.10375e-05 -0.00199868 0.0479653)
(-0.0480441 -0.000422286 0.00019194 0.000123559 -0.00246553 0.0479205)
(-0.048041 -0.00050483 0.00024164 0.000188795 -0.00304228 0.0478522)
(-0.0480368 -0.00059307 0.000296023 0.000287166 -0.0037429 0.0477497)
(-0.0480314 -0.000683307 0.000354389 0.000432771 -0.00458034 0.0475986)
(-0.0480247 -0.000768226 0.000415746 0.000644332 -0.0055667 0.0473804)
(-0.0480171 -0.000853008 0.000473906 0.000948679 -0.00672221 0.0470684)
(-0.0480085 -0.000947198 0.000526332 0.00138278 -0.00806744 0.0466258)
(-0.047999 -0.00104383 0.000572259 0.00199236 -0.00960873 0.0460066)
(-0.047989 -0.00113022 0.00060824 0.00283292 -0.0113401 0.0451561)
(-0.0479797 -0.00119328 0.00062964 0.00396855 -0.0132389 0.0440112)
(-0.0479725 -0.0012192 0.000633624 0.00546629 -0.0152582 0.0425062)
(-0.0479687 -0.00119633 0.000621991 0.00738782 -0.0173223 0.0405809)
(-0.047969 -0.0011197 0.000603868 0.00977939 -0.0193269 0.0381896)
(-0.0479725 -0.000989555 0.000596594 0.0126616 -0.0211427 0.0353109)
(-0.047976 -0.000818212 0.000632918 0.0160176 -0.0226226 0.0319584)
(-0.0479761 -0.000718424 0.000727666 0.0198076 -0.0236202 0.0281685)
(-0.0463548 -0.000594217 0.000594216 0.0231774 -0.0231774 0.0231774)
(-0.0401907 -0.000361473 0.00015911 0.0238815 -0.0197358 0.0163093)
(-0.0291406 -0.00018438 -0.000116692 0.0201933 -0.0134428 0.00894731)
(-0.0157101 -7.59784e-05 -9.50872e-05 0.0123916 -0.00641338 0.00331847)
(-0.00566292 -1.48901e-05 -2.30371e-05 0.00493772 -0.00189241 0.000725199)
(-0.00124415 -2.43736e-07 -1.55017e-06 0.00116438 -0.00030475 7.97632e-05)
(-0.000134827 1.14218e-07 2.33162e-07 0.000131842 -1.98391e-05 2.98494e-06)
(-3.90025e-06 2.48644e-09 1.99071e-08 3.89127e-06 -1.87994e-07 8.97951e-09)
(-0.0480436 1.37729e-06 -0.000318213 4.55993e-08 4.68004e-05 0.0480435)
(-0.0480437 3.83801e-06 -0.000315686 3.84635e-07 0.000135918 0.0480433)
(-0.048044 5.68881e-06 -0.000309439 9.4414e-07 0.000212923 0.048043)
(-0.0480443 6.85356e-06 -0.000300507 1.53437e-06 0.000271391 0.0480428)
(-0.0480448 6.9107e-06 -0.000289234 1.95365e-06 0.000306155 0.0480428)
(-0.0480453 5.40562e-06 -0.000275932 2.06004e-06 0.000314248 0.0480432)
(-0.0480458 1.85563e-06 -0.000260936 1.81215e-06 0.000294531 0.048044)
(-0.0480464 -4.24984e-06 -0.000244624 1.28558e-06 0.000247811 0.0480451)
(-0.0480469 -1.33703e-05 -0.0002274 6.54992e-07 0.00017676 0.0480463)
(-0.0480475 -2.59232e-05 -0.000209652 1.46906e-07 8.56042e-05 0.0480473)
(-0.0480479 -4.22526e-05 -0.000191701 -2.08165e-08 -2.04992e-05 0.0480479)
(-0.0480483 -6.26788e-05 -0.000173732 3.1082e-07 -0.000136262 0.048048)
(-0.0480486 -8.75208e-05 -0.000155834 1.21911e-06 -0.000256965 0.0480474)
(-0.0480489 -0.000117025 -0.000137929 2.70871e-06 -0.000379111 0.0480462)