/*--------------------------------*- C++ -*----------------------------------*\
| =========                 |                                                 |
| \\      /  F ield         | OpenFOAM: The Open Source CFD Toolbox           |
|  \\    /   O peration     | Version:  2412                                  |
|   \\  /    A nd           | Website:  www.openfoam.com                      |
|    \\/     M anipulation  |                                                 |
\*---------------------------------------------------------------------------*/
FoamFile
{
    version     2.0;
    format      ascii;
    arch        "LSB;label=32;scalar=64";
    class       volSymmTensorField;
    location    "1830";
    object      Tij3;
}
// * * * * * * * * * * * * * * * * * * * * * * * * * * * * * * * * * * * * * //

dimensions      [0 0 0 0 0 0 0];

internalField   nonuniform List<symmTensor> 
2304
(
(9.37378e-06 -1.46119e-08 -7.54683e-09 3.17775e-11 2.80023e-10 9.37379e-06)
(9.39087e-06 -4.30334e-08 -7.63539e-09 2.06114e-10 8.17469e-10 9.39106e-06)
(9.42219e-06 -6.97851e-08 -7.82927e-09 5.256e-10 1.29751e-09 9.4227e-06)
(9.46443e-06 -9.4671e-08 -8.10883e-09 9.55424e-10 1.68211e-09 9.46536e-06)
(9.51314e-06 -1.1752e-07 -8.44578e-09 1.45981e-09 1.93302e-09 9.51458e-06)
(9.56377e-06 -1.38256e-07 -8.82084e-09 2.00615e-09 2.02723e-09 9.56575e-06)
(9.61175e-06 -1.5683e-07 -9.20757e-09 2.56579e-09 1.95058e-09 9.61429e-06)
(9.65294e-06 -1.73269e-07 -9.58369e-09 3.11636e-09 1.70158e-09 9.65604e-06)
(9.68389e-06 -1.87648e-07 -9.92598e-09 3.64168e-09 1.2925e-09 9.68751e-06)
(9.70206e-06 -2.00105e-07 -1.02172e-08 4.13213e-09 7.49821e-10 9.70617e-06)
(9.70604e-06 -2.10814e-07 -1.04453e-08 4.58339e-09 1.1078e-10 9.7106e-06)
(9.69553e-06 -2.19981e-07 -1.0606e-08 4.9954e-09 -5.81291e-10 9.70051e-06)
(9.67124e-06 -2.27808e-07 -1.07032e-08 5.37026e-09 -1.28197e-09 9.6766e-06)
(9.63469e-06 -2.34494e-07 -1.07463e-08 5.71144e-09 -1.95023e-09 9.64039e-06)
(9.58798e-06 -2.40178e-07 -1.07598e-08 6.0208e-09 -2.56071e-09 9.59399e-06)
(9.53319e-06 -2.44949e-07 -1.07612e-08 6.2983e-09 -3.10463e-09 9.53947e-06)
(9.47229e-06 -2.48827e-07 -1.0781e-08 6.54104e-09 -3.59049e-09 9.47882e-06)
(9.40669e-06 -2.51768e-07 -1.08388e-08 6.74315e-09 -4.0462e-09 9.41342e-06)
(9.33713e-06 -2.53659e-07 -1.09656e-08 6.89571e-09 -4.52022e-09 9.34401e-06)
(9.26339e-06 -2.5433e-07 -1.11741e-08 6.98729e-09 -5.08123e-09 9.27036e-06)
(9.18428e-06 -2.53576e-07 -1.14786e-08 7.00587e-09 -5.81755e-09 9.19127e-06)
(9.09746e-06 -2.51178e-07 -1.18774e-08 6.94017e-09 -6.83321e-09 9.10438e-06)
(8.99961e-06 -2.46913e-07 -1.2375e-08 6.78097e-09 -8.23644e-09 9.00637e-06)
(8.88656e-06 -2.40574e-07 -1.29526e-08 6.5224e-09 -1.01377e-08 8.89306e-06)
(8.75354e-06 -2.32023e-07 -1.35746e-08 6.16551e-09 -1.26369e-08 8.75967e-06)
(8.59549e-06 -2.21228e-07 -1.41857e-08 5.71949e-09 -1.58063e-08 8.60115e-06)
(8.4076e-06 -2.08313e-07 -1.47056e-08 5.20342e-09 -1.96555e-08 8.41271e-06)
(8.18617e-06 -1.93569e-07 -1.50821e-08 4.64422e-09 -2.41118e-08 8.19067e-06)
(7.92924e-06 -1.77412e-07 -1.53839e-08 4.0725e-09 -2.90974e-08 7.93311e-06)
(7.63581e-06 -1.59681e-07 -1.60495e-08 3.49427e-09 -3.47712e-08 7.639e-06)
(7.30202e-06 -1.39968e-07 -1.68965e-08 2.91532e-09 -4.13902e-08 7.30448e-06)
(6.92359e-06 -1.18482e-07 -1.76669e-08 2.37398e-09 -4.89976e-08 6.92529e-06)
(6.49756e-06 -9.57555e-08 -1.82421e-08 1.92266e-09 -5.75106e-08 6.49848e-06)
(6.02247e-06 -7.25066e-08 -1.84739e-08 1.61875e-09 -6.67557e-08 6.02264e-06)
(5.49911e-06 -4.97179e-08 -1.81367e-08 1.51915e-09 -7.6366e-08 5.49853e-06)
(4.93182e-06 -2.86677e-08 -1.69549e-08 1.6663e-09 -8.56832e-08 4.93054e-06)
(4.33005e-06 -1.08372e-08 -1.46958e-08 2.06659e-09 -9.37377e-08 4.32808e-06)
(3.70921e-06 2.35974e-09 -1.13203e-08 2.67024e-09 -9.93688e-08 3.70657e-06)
(3.09014e-06 1.002e-08 -7.15668e-09 3.37082e-09 -1.01519e-07 3.08684e-06)
(2.49647e-06 1.21967e-08 -2.95746e-09 4.04067e-09 -9.96374e-08 2.49254e-06)
(1.95012e-06 1.02023e-08 1.9993e-10 4.59572e-09 -9.39925e-08 1.94564e-06)
(1.46665e-06 6.42759e-09 1.52802e-09 5.04132e-09 -8.55583e-08 1.46167e-06)
(1.05321e-06 3.09514e-09 1.39014e-09 5.44258e-09 -7.54219e-08 1.04779e-06)
(7.1093e-07 1.10986e-09 7.58557e-10 5.86626e-09 -6.42914e-08 7.0507e-07)
(4.38163e-07 2.64894e-10 2.61962e-10 6.37348e-09 -5.24565e-08 4.3179e-07)
(2.32693e-07 2.8883e-11 3.81919e-11 7.06182e-09 -3.99167e-08 2.25631e-07)
(9.31701e-08 7.09137e-13 -6.39651e-12 8.1822e-09 -2.63702e-08 8.49879e-08)
(2.12216e-08 7.74631e-13 -7.74878e-13 1.06108e-08 -1.06108e-08 1.06108e-08)
(0.000320521 -4.46924e-07 -4.16597e-06 5.3481e-09 3.39445e-08 0.000320526)
(0.000321102 -1.31631e-06 -4.19026e-06 1.00725e-08 9.9254e-08 0.000321112)
(0.000322167 -2.1349e-06 -4.22205e-06 1.87252e-08 1.57995e-07 0.000322186)
(0.000323603 -2.8974e-06 -4.26666e-06 3.03638e-08 2.06117e-07 0.000323633)
(0.000325259 -3.59893e-06 -4.31967e-06 4.40309e-08 2.39556e-07 0.000325304)
(0.00032698 -4.23706e-06 -4.37672e-06 5.88515e-08 2.55855e-07 0.000327041)
(0.000328612 -4.81015e-06 -4.43317e-06 7.40551e-08 2.53503e-07 0.000328689)
(0.000330015 -5.31849e-06 -4.48471e-06 8.90359e-08 2.32331e-07 0.000330107)
(0.000331069 -5.76374e-06 -4.52747e-06 1.0335e-07 1.93634e-07 0.000331176)
(0.000331689 -6.14924e-06 -4.5585e-06 1.16721e-07 1.40218e-07 0.00033181)
(0.000331827 -6.47952e-06 -4.57595e-06 1.2901e-07 7.60333e-08 0.000331961)
(0.000331473 -6.76e-06 -4.57924e-06 1.40179e-07 5.68015e-09 0.000331619)
(0.00033065 -6.99618e-06 -4.56899e-06 1.50246e-07 -6.61211e-08 0.000330806)
(0.000329409 -7.19357e-06 -4.5469e-06 1.59255e-07 -1.35001e-07 0.000329574)
(0.000327821 -7.35633e-06 -4.51596e-06 1.67215e-07 -1.98259e-07 0.000327994)
(0.000325957 -7.48725e-06 -4.47896e-06 1.74096e-07 -2.54939e-07 0.000326137)
(0.000323884 -7.58743e-06 -4.43927e-06 1.79811e-07 -3.05934e-07 0.000324069)
(0.000321649 -7.65628e-06 -4.39951e-06 1.84218e-07 -3.54174e-07 0.000321839)
(0.000319279 -7.69148e-06 -4.36234e-06 1.87124e-07 -4.04788e-07 0.000319471)
(0.000316766 -7.68918e-06 -4.32894e-06 1.88311e-07 -4.65002e-07 0.00031696)
(0.000314067 -7.64449e-06 -4.29977e-06 1.87577e-07 -5.4415e-07 0.000314261)
(0.000311093 -7.55174e-06 -4.27338e-06 1.8477e-07 -6.53223e-07 0.000311283)
(0.000307742 -7.40596e-06 -4.24819e-06 1.79873e-07 -8.03668e-07 0.000307927)
(0.000303875 -7.20232e-06 -4.22051e-06 1.73035e-07 -1.00711e-06 0.000304052)
(0.000299331 -6.93775e-06 -4.18515e-06 1.64676e-07 -1.27409e-06 0.000299497)
(0.00029394 -6.61135e-06 -4.13548e-06 1.5553e-07 -1.61228e-06 0.000294091)
(0.000287537 -6.22577e-06 -4.06366e-06 1.46657e-07 -2.02285e-06 0.00028767)
(0.000279993 -5.78838e-06 -3.96428e-06 1.39354e-07 -2.49814e-06 0.000280103)
(0.000271239 -5.31275e-06 -3.84306e-06 1.3512e-07 -3.02956e-06 0.000271322)
(0.000261244 -4.79866e-06 -3.72513e-06 1.35705e-07 -3.63403e-06 0.000261296)
(0.000249879 -4.23832e-06 -3.60012e-06 1.4409e-07 -4.33844e-06 0.00024989)
(0.000237001 -3.63946e-06 -3.45101e-06 1.64624e-07 -5.14691e-06 0.00023696)
(0.000222514 -3.01622e-06 -3.27019e-06 2.02739e-07 -6.05074e-06 0.000222406)
(0.000206371 -2.38432e-06 -3.04981e-06 2.65147e-07 -7.03218e-06 0.000206176)
(0.000188597 -1.76358e-06 -2.77854e-06 3.59319e-07 -8.05332e-06 0.000188286)
(0.000169329 -1.17916e-06 -2.44417e-06 4.91647e-07 -9.04545e-06 0.000168867)
(0.000148868 -6.61033e-07 -2.04011e-06 6.64141e-07 -9.90623e-06 0.000148221)
(0.000127715 -2.41231e-07 -1.57479e-06 8.70394e-07 -1.05112e-05 0.000126853)
(0.000106559 5.22777e-08 -1.08101e-06 1.09325e-06 -1.0744e-05 0.000105468)
(8.62045e-05 2.02666e-07 -6.17721e-07 1.30807e-06 -1.05399e-05 8.48969e-05)
(6.74137e-05 2.18894e-07 -2.6109e-07 1.4937e-06 -9.92023e-06 6.59209e-05)
(5.08213e-05 1.54795e-07 -6.41688e-08 1.64742e-06 -8.99662e-06 4.91754e-05)
(3.67129e-05 8.057e-08 3.22601e-13 1.78337e-06 -7.89002e-06 3.49308e-05)
(2.51207e-05 3.29849e-08 3.16504e-09 1.91951e-06 -6.67249e-06 2.32018e-05)
(1.59328e-05 1.18821e-08 -4.0782e-09 2.0632e-06 -5.34913e-06 1.38697e-05)
(8.77476e-06 4.70081e-09 -5.21807e-09 2.12996e-06 -3.76203e-06 6.64483e-06)
(2.80395e-06 1.21386e-09 -1.21387e-09 1.40198e-06 -1.40197e-06 1.40198e-06)
(9.31701e-08 6.39529e-12 -7.09833e-13 8.49879e-08 -2.63702e-08 8.18219e-09)
(0.00266077 -3.25143e-06 -9.73062e-05 1.81376e-07 5.21252e-07 0.00266099)
(0.0026651 -9.56471e-06 -9.76406e-05 2.09773e-07 1.52381e-06 0.00266535)
(0.002673 -1.55033e-05 -9.81654e-05 2.61498e-07 2.42713e-06 0.00267331)
(0.00268364 -2.10439e-05 -9.88911e-05 3.30661e-07 3.17314e-06 0.00268403)
(0.00269588 -2.61466e-05 -9.97474e-05 4.11353e-07 3.70328e-06 0.00269636)
(0.00270856 -3.07932e-05 -0.000100663 4.98305e-07 3.98257e-06 0.00270915)
(0.00272054 -3.49708e-05 -0.000101563 5.86928e-07 3.98986e-06 0.00272124)
(0.00273078 -3.86785e-05 -0.000102381 6.73759e-07 3.72324e-06 0.00273159)
(0.00273842 -4.19241e-05 -0.000103056 7.56368e-07 3.20164e-06 0.00273934)
(0.00274283 -4.47269e-05 -0.000103544 8.33348e-07 2.46533e-06 0.00274385)
(0.00274367 -4.71141e-05 -0.000103817 9.04002e-07 1.57072e-06 0.00274478)
(0.00274085 -4.91193e-05 -0.000103865 9.68047e-07 5.83225e-07 0.00274205)
(0.00273455 -5.0778e-05 -0.000103698 1.02533e-06 -4.30122e-07 0.00273581)
(0.00272512 -5.21268e-05 -0.000103341 1.0756e-06 -1.40726e-06 0.00272645)
(0.00271307 -5.31947e-05 -0.000102837 1.11822e-06 -2.30991e-06 0.00271444)
(0.00269889 -5.4003e-05 -0.000102226 1.15239e-06 -3.12454e-06 0.00270031)
(0.00268305 -5.45635e-05 -0.000101554 1.17708e-06 -3.86396e-06 0.00268449)
(0.00266585 -5.48781e-05 -0.000100857 1.1912e-06 -4.57005e-06 0.00266732)
(0.00264747 -5.49387e-05 -0.000100167 1.19374e-06 -5.31612e-06 0.00264896)
(0.00262781 -5.47292e-05 -9.94962e-05 1.18406e-06 -6.20493e-06 0.00262931)
(0.0026067 -5.42276e-05 -9.88476e-05 1.16228e-06 -7.37082e-06 0.00260819)
(0.00258375 -5.34092e-05 -9.82085e-05 1.12973e-06 -8.97333e-06 0.00258523)
(0.00255787 -5.22413e-05 -9.75273e-05 1.08945e-06 -1.11764e-05 0.00255933)
(0.00252801 -5.06989e-05 -9.67395e-05 1.0475e-06 -1.4148e-05 0.00252941)
(0.00249294 -4.87644e-05 -9.57603e-05 1.01396e-06 -1.8043e-05 0.00249427)
(0.00245137 -4.64266e-05 -9.44876e-05 1.00367e-06 -2.29795e-05 0.00245257)
(0.002402 -4.36898e-05 -9.28028e-05 1.03616e-06 -2.89898e-05 0.00240302)
(0.00234373 -4.06e-05 -9.0607e-05 1.13436e-06 -3.59828e-05 0.00234448)
(0.00227585 -3.72951e-05 -8.79143e-05 1.32315e-06 -4.38453e-05 0.00227624)
(0.00219805 -3.38052e-05 -8.495e-05 1.64357e-06 -5.28265e-05 0.00219796)
(0.00210924 -3.00743e-05 -8.15837e-05 2.17187e-06 -6.33197e-05 0.00210845)
(0.00200821 -2.61673e-05 -7.76172e-05 3.00927e-06 -7.54019e-05 0.00200643)
(0.00189414 -2.2167e-05 -7.29568e-05 4.282e-06 -8.89806e-05 0.00189093)
(0.00176648 -1.81161e-05 -6.75096e-05 6.15289e-06 -0.000103844 0.00176126)
(0.00162514 -1.40484e-05 -6.11558e-05 8.81178e-06 -0.000119489 0.00161712)
(0.00147079 -1.00139e-05 -5.37868e-05 1.24335e-05 -0.000134949 0.00145899)
(0.00130527 -6.10921e-06 -4.53837e-05 1.70972e-05 -0.000148718 0.00128864)
(0.00113194 -2.52041e-06 -3.61254e-05 2.26768e-05 -0.000158869 0.00110956)
(0.000955799 4.50399e-07 -2.64972e-05 2.87585e-05 -0.000163462 0.000927178)
(0.000783318 2.37287e-06 -1.73247e-05 3.46893e-05 -0.000161227 0.000748664)
(0.000622074 2.90727e-06 -9.7691e-06 3.98908e-05 -0.000152379 0.000582188)
(0.00047722 2.35167e-06 -4.81197e-06 4.41304e-05 -0.000138196 0.000433103)
(0.000351808 1.50092e-06 -2.29217e-06 4.75428e-05 -0.000120233 0.000304283)
(0.000245322 8.63563e-07 -1.16987e-06 4.98301e-05 -9.868e-05 0.000195503)
(0.000151482 4.5499e-07 -5.60405e-07 4.78313e-05 -7.04058e-05 0.000103654)
(6.28526e-05 1.37288e-07 -1.37288e-07 3.14266e-05 -3.14255e-05 3.14266e-05)
(8.77475e-06 5.21803e-09 -4.70082e-09 6.64483e-06 -3.76203e-06 2.12995e-06)
(2.32693e-07 -3.81944e-11 -2.88841e-11 2.25631e-07 -3.99167e-08 7.0618e-09)
(0.0092034 -9.54912e-06 -0.000524 1.60368e-06 2.59603e-06 0.00919972)
(0.00921466 -2.80835e-05 -0.000524797 1.66088e-06 7.58056e-06 0.00921104)
(0.0092352 -4.55075e-05 -0.000526916 1.76435e-06 1.20545e-05 0.00923171)
(0.00926276 -6.17648e-05 -0.000529814 1.89895e-06 1.57222e-05 0.00925945)
(0.00929441 -7.67383e-05 -0.000533228 2.05074e-06 1.82889e-05 0.00929132)
(0.00932714 -9.03726e-05 -0.000536894 2.20863e-06 1.95818e-05 0.0093243)
(0.00935806 -0.000102628 -0.000540547 2.36329e-06 1.95009e-05 0.00935549)
(0.00938454 -0.000113492 -0.000543938 2.50912e-06 1.80423e-05 0.00938227)
(0.00940444 -0.000122978 -0.000546853 2.6434e-06 1.5306e-05 0.00940246)
(0.00941622 -0.000131128 -0.000549129 2.76598e-06 1.14955e-05 0.00941452)
(0.009419 -0.000138007 -0.000550665 2.87759e-06 6.89242e-06 0.00941758)
(0.00941259 -0.0001437 -0.000551431 2.97848e-06 1.81994e-06 0.00941143)
(0.00939737 -0.000148297 -0.00055146 3.06772e-06 -3.39227e-06 0.00939644)
(0.00937418 -0.0001519 -0.000550845 3.14218e-06 -8.4404e-06 0.00937346)
(0.00934416 -0.000154592 -0.000549741 3.19636e-06 -1.31391e-05 0.00934364)
(0.00930847 -0.000156443 -0.000548302 3.22435e-06 -1.74263e-05 0.00930813)
(0.00926813 -0.000157502 -0.000546702 3.22019e-06 -2.13725e-05 0.00926795)
(0.00922382 -0.000157796 -0.000545077 3.17909e-06 -2.51946e-05 0.00922379)
(0.00917579 -0.000157332 -0.00054355 3.09849e-06 -2.927e-05 0.00917592)
(0.00912373 -0.000156101 -0.000542167 2.97974e-06 -3.41275e-05 0.00912401)
(0.00906735 -0.000154073 -0.000540972 2.82965e-06 -4.04596e-05 0.00906777)
(0.00900573 -0.000151195 -0.000539936 2.66414e-06 -4.90819e-05 0.00900628)
(0.00893571 -0.000147401 -0.00053883 2.51201e-06 -6.08436e-05 0.00893633)
(0.00885442 -0.000142635 -0.000537401 2.42214e-06 -7.66327e-05 0.00885505)
(0.00875862 -0.000136849 -0.00053532 2.4706e-06 -9.72878e-05 0.0087591)
(0.00864474 -0.000129971 -0.000532186 2.76694e-06 -0.000123507 0.00864483)
(0.00850903 -0.000121936 -0.000527509 3.45698e-06 -0.000155634 0.00850834)
(0.00834783 -0.000112818 -0.000520763 4.72059e-06 -0.000193483 0.00834581)
(0.00815806 -0.000103147 -0.000511579 6.756e-06 -0.000236747 0.00815397)
(0.00793755 -9.31612e-05 -0.000500142 9.90373e-06 -0.000286798 0.00793031)
(0.0076825 -8.27672e-05 -0.000485999 1.47897e-05 -0.000345746 0.00767041)
(0.00738879 -7.21882e-05 -0.000468543 2.22425e-05 -0.000414321 0.00736935)
(0.00705289 -6.15524e-05 -0.000447344 3.33289e-05 -0.000492556 0.00702252)
(0.00667161 -5.06503e-05 -0.000421854 4.9474e-05 -0.000579938 0.00662527)
(0.00624245 -3.90649e-05 -0.000391361 7.24188e-05 -0.000674457 0.00617329)
(0.00576432 -2.63077e-05 -0.000355148 0.000103933 -0.000771526 0.00566361)
(0.00523853 -1.20604e-05 -0.000312731 0.000145194 -0.000863223 0.00509626)
(0.00466985 3.37608e-06 -0.000264187 0.000195832 -0.000938329 0.00447633)
(0.00406767 1.85763e-05 -0.000210553 0.000252943 -0.000983797 0.00381622)
(0.00344723 3.018e-05 -0.000154197 0.00031078 -0.000988031 0.00313714)
(0.00283146 3.37045e-05 -0.000100713 0.00036252 -0.000946115 0.00246915)
(0.00223885 2.88004e-05 -5.86783e-05 0.000402196 -0.000859154 0.00183676)
(0.00167434 2.01582e-05 -3.13177e-05 0.000421878 -0.000726586 0.00125258)
(0.0011177 1.16156e-05 -1.45557e-05 0.000397132 -0.000534778 0.000720645)
(0.000561406 4.36815e-06 -4.36815e-06 0.000280716 -0.00028066 0.000280716)
(0.000151482 5.60405e-07 -4.5499e-07 0.000103654 -7.04058e-05 4.78313e-05)
(1.59328e-05 4.07812e-09 -1.18821e-08 1.38697e-05 -5.34913e-06 2.0632e-06)
(4.38162e-07 -2.61965e-10 -2.64896e-10 4.3179e-07 -5.24564e-08 6.37347e-09)
(0.0172337 -1.45134e-05 -0.00128608 5.57341e-06 6.45887e-06 0.0172171)
(0.017247 -4.28594e-05 -0.00128782 5.60423e-06 1.88523e-05 0.0172304)
(0.017271 -6.9583e-05 -0.00129304 5.65757e-06 2.99178e-05 0.0172548)
(0.0173033 -9.44168e-05 -0.00130014 5.71191e-06 3.88765e-05 0.0172874)
(0.0173403 -0.000117266 -0.00130851 5.75131e-06 4.49859e-05 0.0173248)
(0.0173787 -0.000138026 -0.00131756 5.76602e-06 4.78133e-05 0.0173637)
(0.0174152 -0.00015661 -0.0013267 5.74949e-06 4.71197e-05 0.0174008)
(0.0174471 -0.000172968 -0.00133539 5.70326e-06 4.29124e-05 0.0174332)
(0.0174719 -0.000187088 -0.00134317 5.63433e-06 3.54596e-05 0.0174587)
(0.0174881 -0.000199008 -0.0013497 5.55366e-06 2.52841e-05 0.0174754)
(0.0174947 -0.000208809 -0.00135476 5.47146e-06 1.30961e-05 0.0174826)
(0.0174916 -0.000216606 -0.00135829 5.39313e-06 -2.99275e-07 0.01748)
(0.017479 -0.000222539 -0.00136034 5.31825e-06 -1.40892e-05 0.0174678)
(0.0174578 -0.000226774 -0.00136111 5.23783e-06 -2.75346e-05 0.017447)
(0.0174291 -0.000229456 -0.00136088 5.13557e-06 -4.01969e-05 0.0174186)
(0.0173938 -0.000230716 -0.00135997 4.9943e-06 -5.19539e-05 0.0173836)
(0.0173529 -0.00023066 -0.00135869 4.79809e-06 -6.3024e-05 0.0173429)
(0.0173068 -0.00022937 -0.00135728 4.53629e-06 -7.40061e-05 0.017297)
(0.0172554 -0.00022689 -0.00135597 4.20783e-06 -8.59195e-05 0.0172458)
(0.017198 -0.000223236 -0.00135481 3.8247e-06 -0.000100196 0.0171888)
(0.0171347 -0.00021838 -0.00135404 3.41718e-06 -0.000118653 0.0171256)
(0.0170639 -0.000212244 -0.00135349 3.05108e-06 -0.000143399 0.017055)
(0.0169817 -0.000204736 -0.00135262 2.84218e-06 -0.000176705 0.0169728)
(0.0168847 -0.000195746 -0.00135089 2.97661e-06 -0.000220983 0.0168754)
(0.016769 -0.000185161 -0.00134768 3.73755e-06 -0.000278562 0.0167587)
(0.0166303 -0.000172778 -0.0013423 5.53341e-06 -0.000351533 0.016618)
(0.016464 -0.000158325 -0.00133392 8.92122e-06 -0.000441373 0.016448)
(0.0162647 -0.00014159 -0.00132156 1.46381e-05 -0.000548689 0.0162429)
(0.0160267 -0.000122777 -0.00130436 2.36016e-05 -0.000674122 0.0159959)
(0.0157426 -0.000102898 -0.00128667 3.73236e-05 -0.000821393 0.0156985)
(0.0154073 -8.34211e-05 -0.00126481 5.82987e-05 -0.000995842 0.015343)
(0.0150158 -6.47734e-05 -0.00123542 8.98578e-05 -0.00120074 0.0149209)
(0.0145621 -4.66071e-05 -0.00119746 0.000136492 -0.00143818 0.0144219)
(0.0140405 -2.79265e-05 -0.00114969 0.000204335 -0.001709 0.0138338)
(0.0134449 -7.07764e-06 -0.00109092 0.000301146 -0.00201041 0.0131428)
(0.0127696 1.81151e-05 -0.00102034 0.000435519 -0.00233301 0.0123343)
(0.0120082 4.99365e-05 -0.000937597 0.000614897 -0.00265789 0.0113944)
(0.0111521 8.97279e-05 -0.000842295 0.00084203 -0.00295451 0.0103115)
(0.0101887 0.000136504 -0.000732506 0.00111002 -0.00318051 0.00907998)
(0.00909812 0.000180938 -0.000601481 0.0013961 -0.00328313 0.00770295)
(0.00785506 0.000199776 -0.000445987 0.00165726 -0.00320646 0.00619818)
(0.00642118 0.000177887 -0.00028909 0.00182749 -0.00289697 0.00459396)
(0.00473313 0.000123841 -0.000155894 0.00179561 -0.00229563 0.0029379)
(0.00281513 5.93899e-05 -5.93899e-05 0.00140769 -0.00140697 0.00140769)
(0.0011177 1.45557e-05 -1.16156e-05 0.000720645 -0.000534778 0.000397131)
(0.000245322 1.16987e-06 -8.63561e-07 0.000195503 -9.86799e-05 4.983e-05)
(2.51207e-05 -3.16515e-09 -3.29849e-08 2.32018e-05 -6.67248e-06 1.91951e-06)
(7.10929e-07 -7.58561e-10 -1.10986e-09 7.0507e-07 -6.42914e-08 5.86625e-09)
(0.0223452 -1.46822e-05 -0.00220573 1.11269e-05 1.10043e-05 0.0223431)
(0.022356 -4.35483e-05 -0.00221004 1.10877e-05 3.21034e-05 0.0223542)
(0.0223758 -7.0824e-05 -0.00221747 1.10001e-05 5.08214e-05 0.0223745)
(0.0224023 -9.5987e-05 -0.00222771 1.0843e-05 6.57715e-05 0.0224018)
(0.022433 -0.000118967 -0.00223993 1.0603e-05 7.56901e-05 0.0224333)
(0.0224652 -0.000139583 -0.00225333 1.02727e-05 7.98389e-05 0.0224666)
(0.0224967 -0.000157671 -0.00226713 9.85281e-06 7.78342e-05 0.0224992)
(0.0225254 -0.000173111 -0.0022806 9.36e-06 6.97212e-05 0.0225292)
(0.0225499 -0.000185843 -0.00229314 8.82132e-06 5.59928e-05 0.0225549)
(0.022569 -0.000195883 -0.00230428 8.2706e-06 3.75644e-05 0.0225751)
(0.0225822 -0.00020332 -0.00231371 7.73849e-06 1.56548e-05 0.0225893)
(0.0225893 -0.000208301 -0.00232133 7.24405e-06 -8.37812e-06 0.0225972)
(0.0225906 -0.00021101 -0.00232717 6.79297e-06 -3.3188e-05 0.0225991)
(0.0225863 -0.00021169 -0.00233141 6.37245e-06 -5.75834e-05 0.0225953)
(0.022577 -0.000210533 -0.0023344 5.95504e-06 -8.08974e-05 0.0225863)
(0.022563 -0.000207712 -0.00233647 5.51178e-06 -0.00010302 0.0225726)
(0.0225446 -0.000203349 -0.002338 5.01769e-06 -0.000124443 0.0225543)
(0.0225214 -0.000197521 -0.00233924 4.46055e-06 -0.000146326 0.0225313)
(0.0224929 -0.000190211 -0.00234042 3.85167e-06 -0.000170571 0.022503)
(0.0224583 -0.000181344 -0.00234161 3.23407e-06 -0.000199799 0.0224683)
(0.0224176 -0.000170745 -0.00234324 2.69618e-06 -0.000237232 0.0224276)
(0.0223689 -0.000158149 -0.00234494 2.41605e-06 -0.000286561 0.0223786)
(0.022309 -0.00014327 -0.00234603 2.69742e-06 -0.000351844 0.0223178)
(0.0222352 -0.000125721 -0.00234582 4.01952e-06 -0.000437397 0.0222419)
(0.0221446 -0.000105127 -0.00234356 7.10284e-06 -0.000547432 0.0221475)
(0.0220342 -8.10191e-05 -0.00233855 1.29817e-05 -0.000685901 0.0220303)
(0.0219007 -5.28835e-05 -0.00233013 2.30711e-05 -0.000856092 0.0218857)
(0.0217401 -2.04248e-05 -0.00231761 3.9273e-05 -0.00106063 0.021708)
(0.0215482 1.47564e-05 -0.00229898 6.45018e-05 -0.00130357 0.0214898)
(0.0213199 5.1697e-05 -0.0022702 0.000103179 -0.00159138 0.0212217)
(0.0210506 9.10648e-05 -0.00223133 0.000161248 -0.00193138 0.0208934)
(0.0207374 0.000131786 -0.00218314 0.000246895 -0.00233057 0.0204936)
(0.0203786 0.000173797 -0.00212528 0.000371649 -0.00279482 0.0200091)
(0.0199734 0.000218557 -0.00205769 0.000551024 -0.0033275 0.0194237)
(0.019522 0.000267752 -0.00198089 0.000804519 -0.00392632 0.0187182)
(0.0190237 0.000322931 -0.00189529 0.0011543 -0.0045789 0.0178697)
(0.0184716 0.000385081 -0.00179983 0.00162158 -0.00525764 0.0168501)
(0.0178432 0.000454318 -0.00168971 0.0022197 -0.00591411 0.0156233)
(0.0170842 0.000533425 -0.00155431 0.00294237 -0.00647167 0.0141414)
(0.0160747 0.000616816 -0.00136589 0.00373899 -0.00680808 0.0123349)
(0.0145703 0.000649228 -0.00108318 0.00446416 -0.00672694 0.0101041)
(0.0122192 0.000569889 -0.000728369 0.00482532 -0.0059761 0.00739206)
(0.00876661 0.00037701 -0.00037701 0.00438326 -0.0043825 0.00438326)
(0.00473313 0.000155894 -0.000123841 0.0029379 -0.00229563 0.00179561)
(0.00167434 3.13176e-05 -2.01582e-05 0.00125258 -0.000726585 0.000421878)
(0.000351808 2.29216e-06 -1.50091e-06 0.000304283 -0.000120233 4.75428e-05)
(3.67129e-05 -4.56822e-13 -8.05699e-08 3.49308e-05 -7.89001e-06 1.78337e-06)
(1.05321e-06 -1.39014e-09 -3.09514e-09 1.04779e-06 -7.54218e-08 5.44257e-09)
(0.0240243 -1.17247e-05 -0.00257531 1.64257e-05 1.51325e-05 0.0240343)
(0.0240243 -3.45495e-05 -0.00257812 1.63137e-05 4.40532e-05 0.0240345)
(0.0240243 -5.58968e-05 -0.00257991 1.60741e-05 6.94302e-05 0.0240346)
(0.0240242 -7.54203e-05 -0.0025828 1.56862e-05 8.92812e-05 0.0240349)
(0.0240241 -9.28123e-05 -0.00258671 1.51337e-05 0.000101863 0.0240352)
(0.024024 -0.000107818 -0.00259161 1.44081e-05 0.000106186 0.0240358)
(0.0240239 -0.000120218 -0.00259741 1.35183e-05 0.000101794 0.0240365)
(0.0240238 -0.000129846 -0.00260398 1.25003e-05 8.88432e-05 0.0240373)
(0.0240237 -0.000136625 -0.00261115 1.14092e-05 6.81021e-05 0.0240383)
(0.0240237 -0.000140573 -0.00261874 1.03108e-05 4.08925e-05 0.0240393)
(0.0240236 -0.000141804 -0.0026266 9.26497e-06 8.91118e-06 0.0240402)
(0.0240235 -0.000140493 -0.00263463 8.31164e-06 -2.60065e-05 0.0240411)
(0.0240235 -0.000136857 -0.00264276 7.46774e-06 -6.20984e-05 0.0240418)
(0.0240235 -0.00013118 -0.00265104 6.72005e-06 -9.78769e-05 0.0240425)
(0.0240235 -0.000123655 -0.0026597 6.0334e-06 -0.000132602 0.0240431)
(0.0240235 -0.000114427 -0.00266898 5.37197e-06 -0.000166332 0.0240437)
(0.0240235 -0.00010355 -0.00267925 4.71012e-06 -0.000199983 0.0240444)
(0.0240235 -9.09893e-05 -0.0026909 4.04754e-06 -0.000235412 0.024045)
(0.0240235 -7.65384e-05 -0.00270446 3.42982e-06 -0.000275496 0.0240457)
(0.0240234 -5.98725e-05 -0.00272032 2.97054e-06 -0.000324053 0.0240463)
(0.0240233 -4.05247e-05 -0.00273894 2.88741e-06 -0.000385751 0.0240465)
(0.0240231 -1.79059e-05 -0.00276069 3.575e-06 -0.000465971 0.0240462)
(0.0240228 8.69209e-06 -0.00278597 5.67714e-06 -0.000570616 0.0240445)
(0.0240224 4.01934e-05 -0.00281498 1.02084e-05 -0.000706065 0.0240407)
(0.0240218 7.7476e-05 -0.00284786 1.86884e-05 -0.00087874 0.0240331)
(0.024021 0.000121472 -0.00288491 3.3306e-05 -0.00109502 0.0240198)
(0.0240199 0.000172916 -0.00292649 5.70984e-05 -0.00136092 0.0239976)
(0.0240184 0.000231868 -0.00297307 9.41451e-05 -0.00168214 0.0239625)
(0.0240166 0.000298385 -0.00302203 0.0001507 -0.00206568 0.0239085)
(0.0238919 0.000369625 -0.00302177 0.000235134 -0.0025098 0.0237006)
(0.0236947 0.00044699 -0.00299332 0.000358872 -0.00302631 0.0233794)
(0.0234825 0.000531504 -0.00296052 0.000537341 -0.00362776 0.0229888)
(0.0232634 0.000622946 -0.00292462 0.000791181 -0.00431976 0.0225161)
(0.0230486 0.000721676 -0.00288609 0.00114708 -0.00510444 0.0219462)
(0.0228511 0.000827919 -0.00284467 0.00163706 -0.00597623 0.0212596)
(0.0226793 0.000941626 -0.00279747 0.00229602 -0.00691686 0.0204298)
(0.0225277 0.00106211 -0.00273673 0.00315603 -0.00788873 0.0194184)
(0.0223586 0.00118507 -0.00264738 0.00423495 -0.0088253 0.0181687)
(0.0220749 0.00130845 -0.0025071 0.0055174 -0.00961739 0.0165985)
(0.0214731 0.00142387 -0.00226252 0.00691686 -0.0100868 0.0145894)
(0.0200954 0.00140953 -0.00179281 0.00814803 -0.00990282 0.0119601)
(0.0171627 0.00116525 -0.00116525 0.00858029 -0.00859666 0.00858028)
(0.0122192 0.000728369 -0.000569888 0.00739206 -0.0059761 0.00482532)
(0.00642117 0.00028909 -0.000177887 0.00459396 -0.00289697 0.00182749)
(0.00223884 5.86783e-05 -2.88003e-05 0.00183676 -0.000859153 0.000402195)
(0.000477219 4.81197e-06 -2.35167e-06 0.000433103 -0.000138196 4.41304e-05)
(5.08212e-05 6.41687e-08 -1.54795e-07 4.91754e-05 -8.99661e-06 1.64741e-06)
(1.46665e-06 -1.52803e-09 -6.42759e-09 1.46167e-06 -8.55582e-08 5.04131e-09)
(0.0240234 -7.74096e-06 -0.00228144 2.09981e-05 1.89685e-05 0.0240043)
(0.0240234 -2.2504e-05 -0.0022836 2.08441e-05 5.51449e-05 0.0240044)
(0.0240235 -3.60141e-05 -0.00228651 2.05197e-05 8.66284e-05 0.0240046)
(0.0240235 -4.81392e-05 -0.00229093 1.99853e-05 0.000110858 0.0240048)
(0.0240236 -5.83326e-05 -0.00229677 1.92025e-05 0.000125667 0.0240053)
(0.0240237 -6.627e-05 -0.002304 1.81538e-05 0.000129816 0.024006)
(0.0240238 -7.16712e-05 -0.00231252 1.68507e-05 0.000122777 0.024007)
(0.0240239 -7.4324e-05 -0.00232219 1.53494e-05 0.000104807 0.0240082)
(0.024024 -7.4127e-05 -0.0023328 1.37385e-05 7.69321e-05 0.0240095)
(0.0240242 -7.10912e-05 -0.00234413 1.21249e-05 4.08512e-05 0.0240108)
(0.0240243 -6.53399e-05 -0.00235598 1.06071e-05 -1.30685e-06 0.0240121)
(0.0240244 -5.70563e-05 -0.00236822 9.25413e-06 -4.72961e-05 0.0240132)
(0.0240245 -4.64512e-05 -0.00238076 8.10077e-06 -9.50322e-05 0.0240142)
(0.0240247 -3.38091e-05 -0.00239366 7.13861e-06 -0.000142852 0.024015)
(0.0240248 -1.92709e-05 -0.00240719 6.33102e-06 -0.000190065 0.0240158)
(0.0240249 -2.89364e-06 -0.00242163 5.64506e-06 -0.000237025 0.0240164)
(0.0240249 1.53976e-05 -0.00243745 5.07117e-06 -0.000285187 0.024017)
(0.024025 3.57968e-05 -0.00245515 4.64844e-06 -0.000337181 0.0240175)
(0.024025 5.87257e-05 -0.00247543 4.50236e-06 -0.000396864 0.0240178)
(0.0240249 8.47151e-05 -0.00249883 4.89056e-06 -0.000469162 0.0240176)
(0.0240247 0.000114488 -0.00252608 6.27402e-06 -0.000560074 0.0240166)
(0.0240244 0.000148908 -0.00255767 9.43029e-06 -0.000676419 0.024014)
(0.0240239 0.00018892 -0.00259433 1.55787e-05 -0.000825493 0.0240086)
(0.0240232 0.000235676 -0.00263649 2.65981e-05 -0.00101505 0.0239987)
(0.024022 0.0002901 -0.00268448 4.52405e-05 -0.00125278 0.0239816)
(0.0240205 0.000352989 -0.0027387 7.54062e-05 -0.00154621 0.0239535)
(0.0240184 0.000424596 -0.00279916 0.000122471 -0.00190242 0.0239091)
(0.0240157 0.000503878 -0.00286534 0.000193594 -0.00232778 0.0238414)
(0.0240124 0.000591702 -0.00293567 0.000298531 -0.0028283 0.023741)
(0.0240085 0.000690106 -0.00300434 0.00045127 -0.00341417 0.0235937)
(0.0240043 0.000799346 -0.00307066 0.000670441 -0.00409584 0.0233807)
(0.0239995 0.000918924 -0.00313366 0.000978767 -0.00487636 0.0230792)
(0.0239945 0.0010471 -0.00318785 0.00140385 -0.00575213 0.022661)
(0.0239899 0.00118141 -0.00322466 0.00197736 -0.00671088 0.0220937)
(0.0239862 0.00132006 -0.003234 0.00273222 -0.00772792 0.0213436)
(0.0239844 0.0014631 -0.0032062 0.00369854 -0.00876435 0.0203797)
(0.0239845 0.00161332 -0.00313505 0.00489897 -0.00976752 0.0191793)
(0.0239862 0.00177119 -0.00302049 0.00634328 -0.0106731 0.0177327)
(0.023988 0.00194407 -0.00287555 0.00802347 -0.0114099 0.0160493)
(0.0239881 0.00220138 -0.00272159 0.00993015 -0.011912 0.0141491)
(0.0231774 0.00225946 -0.00225946 0.0116215 -0.0116717 0.0116215)
(0.0200954 0.00179281 -0.00140953 0.0119601 -0.00990281 0.00814803)
(0.0145703 0.00108318 -0.000649227 0.0101041 -0.00672694 0.00446415)
(0.00785506 0.000445987 -0.000199775 0.00619818 -0.00320646 0.00165726)
(0.00283146 0.000100713 -3.37045e-05 0.00246915 -0.000946114 0.00036252)
(0.000622073 9.7691e-06 -2.90726e-06 0.000582188 -0.000152379 3.98907e-05)
(6.74136e-05 2.6109e-07 -2.18894e-07 6.59209e-05 -9.92022e-06 1.4937e-06)
(1.95012e-06 -1.99935e-10 -1.02022e-08 1.94564e-06 -9.39924e-08 4.59571e-09)
(0.0240218 -3.86339e-06 -0.0021642 2.59872e-05 2.35227e-05 0.0239931)
(0.0240219 -1.11286e-05 -0.00216672 2.58152e-05 6.83073e-05 0.0239932)
(0.024022 -1.74353e-05 -0.00217296 2.54473e-05 0.000107013 0.0239935)
(0.0240222 -2.24275e-05 -0.00218188 2.48085e-05 0.00013643 0.0239941)
(0.0240224 -2.55069e-05 -0.00219315 2.38242e-05 0.000153943 0.023995)
(0.0240226 -2.62728e-05 -0.00220645 2.24588e-05 0.000158045 0.0239963)
(0.0240229 -2.43872e-05 -0.00222145 2.07242e-05 0.000148138 0.0239979)
(0.0240232 -1.96067e-05 -0.00223778 1.87018e-05 0.000124594 0.0239998)
(0.0240235 -1.18269e-05 -0.00225503 1.65254e-05 8.8719e-05 0.0240018)
(0.0240237 -1.07777e-06 -0.00227282 1.43573e-05 4.26023e-05 0.0240038)
(0.024024 1.24838e-05 -0.00229084 1.23493e-05 -1.11945e-05 0.0240057)
(0.0240242 2.86551e-05 -0.00230891 1.06113e-05 -7.00392e-05 0.0240073)
(0.0240243 4.7234e-05 -0.00232696 9.20649e-06 -0.000131582 0.0240086)
(0.0240244 6.79411e-05 -0.00234509 8.13967e-06 -0.000194068 0.0240096)
(0.0240245 9.07213e-05 -0.00236371 7.38332e-06 -0.000256971 0.0240103)
(0.0240245 0.000115643 -0.00238323 6.92502e-06 -0.000321065 0.0240108)