/*--------------------------------*- C++ -*----------------------------------*\
| =========                 |                                                 |
| \\      /  F ield         | OpenFOAM: The Open Source CFD Toolbox           |
|  \\    /   O peration     | Version:  2412                                  |
|   \\  /    A nd           | Website:  www.openfoam.com                      |
|    \\/     M anipulation  |                                                 |
\*---------------------------------------------------------------------------*/
FoamFile
{
    version     2.0;
    format      ascii;
    arch        "LSB;label=32;scalar=64";
    class       volSymmTensorField;
    location    "1830";
    object      Tij4;
}
// * * * * * * * * * * * * * * * * * * * * * * * * * * * * * * * * * * * * * //

dimensions      [0 0 0 0 0 0 0];

internalField   nonuniform List<symmTensor> 
2304
(
(-9.37378e-06 1.46139e-08 -4.09248e-13 -2.27908e-11 -2.62503e-10 -9.3738e-06)
(-9.39087e-06 4.30335e-08 -3.50919e-12 -1.97263e-10 -7.65783e-10 -9.39107e-06)
(-9.42219e-06 6.97804e-08 -8.98515e-12 -5.16947e-10 -1.21323e-09 -9.42271e-06)
(-9.46443e-06 9.46647e-08 -1.56724e-11 -9.47111e-10 -1.5669e-09 -9.46537e-06)
(-9.51314e-06 1.17513e-07 -2.20963e-11 -1.45193e-09 -1.78878e-09 -9.51459e-06)
(-9.56377e-06 1.38247e-07 -2.68288e-11 -1.99876e-09 -1.85598e-09 -9.56576e-06)
(-9.61175e-06 1.5682e-07 -2.8627e-11 -2.55892e-09 -1.75459e-09 -9.6143e-06)
(-9.65294e-06 1.73259e-07 -2.66229e-11 -3.11002e-09 -1.48327e-09 -9.65605e-06)
(-9.68389e-06 1.87638e-07 -2.04309e-11 -3.63586e-09 -1.05443e-09 -9.68752e-06)
(-9.70206e-06 2.00095e-07 -1.02002e-11 -4.12676e-09 -4.94583e-10 -9.70618e-06)
(-9.70604e-06 2.10804e-07 3.45549e-12 -4.57842e-09 1.59101e-10 -9.71061e-06)
(-9.69553e-06 2.19971e-07 1.95899e-11 -4.99075e-09 8.63453e-10 -9.70052e-06)
(-9.67124e-06 2.27798e-07 3.70813e-11 -5.36586e-09 1.5743e-09 -9.67661e-06)
(-9.63469e-06 2.34483e-07 5.47793e-11 -5.70721e-09 2.25083e-09 -9.6404e-06)
(-9.58798e-06 2.40166e-07 7.1841e-11 -6.01671e-09 2.86805e-09 -9.59399e-06)
(-9.53319e-06 2.44935e-07 8.77998e-11 -6.29431e-09 3.41728e-09 -9.53948e-06)
(-9.47229e-06 2.4881e-07 1.02634e-10 -6.53715e-09 3.90729e-09 -9.47883e-06)
(-9.40669e-06 2.51747e-07 1.16842e-10 -6.7394e-09 4.36589e-09 -9.41342e-06)
(-9.33713e-06 2.53633e-07 1.31518e-10 -6.89215e-09 4.84165e-09 -9.34402e-06)
(-9.26339e-06 2.54296e-07 1.4832e-10 -6.98402e-09 5.40294e-09 -9.27036e-06)
(-9.18428e-06 2.53534e-07 1.6944e-10 -7.00299e-09 6.13794e-09 -9.19128e-06)
(-9.09746e-06 2.51127e-07 1.97376e-10 -6.93774e-09 7.15025e-09 -9.10439e-06)
(-8.99961e-06 2.46851e-07 2.34461e-10 -6.77903e-09 8.54788e-09 -9.00637e-06)
(-8.88656e-06 2.405e-07 2.82563e-10 -6.52099e-09 1.04408e-08 -8.89306e-06)
(-8.75354e-06 2.31938e-07 3.42568e-10 -6.16464e-09 1.29288e-08 -8.75967e-06)
(-8.59549e-06 2.21134e-07 4.13786e-10 -5.71917e-09 1.60838e-08 -8.60115e-06)
(-8.4076e-06 2.08214e-07 4.93212e-10 -5.20361e-09 1.99156e-08 -8.41271e-06)
(-8.18617e-06 1.93466e-07 5.75521e-10 -4.64474e-09 2.43519e-08 -8.19067e-06)
(-7.92924e-06 1.77275e-07 6.55392e-10 -4.07178e-09 2.93143e-08 -7.9331e-06)
(-7.63581e-06 1.59487e-07 7.3034e-10 -3.49136e-09 3.49659e-08 -7.63898e-06)
(-7.30202e-06 1.39737e-07 7.95364e-10 -2.91075e-09 4.15608e-08 -7.30446e-06)
(-6.92359e-06 1.18224e-07 8.3916e-10 -2.36764e-09 4.91416e-08 -6.92526e-06)
(-6.49756e-06 9.54767e-08 8.46846e-10 -1.9142e-09 5.76266e-08 -6.49845e-06)
(-6.02247e-06 7.22242e-08 8.01711e-10 -1.60823e-09 6.68431e-08 -6.0226e-06)
(-5.49911e-06 4.94652e-08 6.87589e-10 -1.50738e-09 7.64254e-08 -5.49849e-06)
(-4.93182e-06 2.84959e-08 4.95418e-10 -1.65494e-09 8.57169e-08 -4.9305e-06)
(-4.33005e-06 1.08074e-08 2.34101e-10 -2.05772e-09 9.375e-08 -4.32805e-06)
(-3.70921e-06 -2.19913e-09 -5.8955e-11 -2.66514e-09 9.93661e-08 -3.70655e-06)
(-3.09014e-06 -9.66502e-09 -3.17832e-10 -3.36835e-09 1.01509e-07 -3.08684e-06)
(-2.49647e-06 -1.17292e-08 -4.68827e-10 -4.03738e-09 9.9627e-08 -2.49254e-06)
(-1.95012e-06 -9.79248e-09 -4.73047e-10 -4.58947e-09 9.39857e-08 -1.94563e-06)
(-1.46665e-06 -6.19679e-09 -3.6272e-10 -5.0341e-09 8.55549e-08 -1.46166e-06)
(-1.05321e-06 -3.01636e-09 -2.1712e-10 -5.43752e-09 7.54205e-08 -1.04779e-06)
(-7.1093e-07 -1.09675e-09 -1.00007e-10 -5.86403e-09 6.4291e-08 -7.05069e-07)
(-4.38163e-07 -2.64691e-10 -3.21562e-11 -6.37287e-09 5.24564e-08 -4.3179e-07)
(-2.32693e-07 -2.60254e-11 -4.60419e-12 -7.06173e-09 3.99167e-08 -2.25631e-07)
(-9.31701e-08 3.34477e-12 1.03782e-12 -8.1822e-09 2.63702e-08 -8.49879e-08)
(-2.12216e-08 1.09774e-16 1.09774e-16 -1.06108e-08 1.06108e-08 -1.06108e-08)
(-0.000320521 4.46277e-07 -3.84797e-11 -6.23757e-10 -2.76365e-08 -0.000320521)
(-0.000321102 1.31449e-06 -3.30068e-10 -5.40135e-09 -8.06286e-08 -0.000321107)
(-0.000322167 2.13199e-06 -8.45311e-10 -1.41595e-08 -1.27735e-07 -0.000322181)
(-0.000323603 2.89351e-06 -1.47493e-09 -2.59565e-08 -1.64952e-07 -0.000323628)
(-0.000325259 3.5943e-06 -2.08064e-09 -3.98282e-08 -1.88283e-07 -0.000325299)
(-0.00032698 4.23199e-06 -2.52795e-09 -5.48897e-08 -1.95319e-07 -0.000327035)
(-0.000328612 4.80497e-06 -2.69921e-09 -7.0362e-08 -1.84599e-07 -0.000328683)
(-0.000330015 5.31357e-06 -2.51147e-09 -8.56276e-08 -1.55982e-07 -0.0003301)
(-0.000331069 5.75942e-06 -1.92711e-09 -1.00231e-07 -1.10776e-07 -0.000331169)
(-0.000331689 6.14583e-06 -9.59229e-10 -1.13883e-07 -5.17694e-08 -0.000331803)
(-0.000331827 6.47723e-06 3.34313e-10 -1.26436e-07 1.71268e-08 -0.000331954)
(-0.000331473 6.75893e-06 1.86316e-09 -1.37844e-07 9.13735e-08 -0.000331611)
(-0.00033065 6.99634e-06 3.51932e-09 -1.48122e-07 1.66324e-07 -0.000330798)
(-0.000329409 7.19476e-06 5.19145e-09 -1.57315e-07 2.37688e-07 -0.000329566)
(-0.000327821 7.35826e-06 6.7975e-09 -1.65443e-07 3.02838e-07 -0.000327986)
(-0.000325957 7.48952e-06 8.29163e-09 -1.72487e-07 3.60866e-07 -0.000326129)
(-0.000323884 7.58959e-06 9.67082e-09 -1.78373e-07 4.12699e-07 -0.000324061)
(-0.000321649 7.6578e-06 1.09819e-08 -1.82978e-07 4.61268e-07 -0.000321831)
(-0.000319279 7.69186e-06 1.23272e-08 -1.86128e-07 5.11685e-07 -0.000319463)
(-0.000316766 7.68803e-06 1.38615e-08 -1.87622e-07 5.71128e-07 -0.000316951)
(-0.000314067 7.64153e-06 1.57877e-08 -1.87266e-07 6.48871e-07 -0.000314252)
(-0.000311093 7.54679e-06 1.83356e-08 -1.84915e-07 7.55823e-07 -0.000311274)
(-0.000307742 7.39905e-06 2.17198e-08 -1.80549e-07 9.03366e-07 -0.000307917)
(-0.000303875 7.1939e-06 2.61138e-08 -1.74313e-07 1.10305e-06 -0.000304042)
(-0.000299331 6.92872e-06 3.16058e-08 -1.66613e-07 1.36539e-06 -0.000299485)
(-0.00029394 6.60326e-06 3.81476e-08 -1.58155e-07 1.69806e-06 -0.000294079)
(-0.000287537 6.22026e-06 4.54809e-08 -1.49941e-07 2.10228e-06 -0.000287656)
(-0.000279993 5.78513e-06 5.31164e-08 -1.43142e-07 2.57055e-06 -0.000280089)
(-0.000271239 5.3047e-06 6.05265e-08 -1.39066e-07 3.09443e-06 -0.000271308)
(-0.000261244 4.78112e-06 6.75648e-08 -1.39679e-07 3.69106e-06 -0.00026128)
(-0.000249879 4.21538e-06 7.40339e-08 -1.48186e-07 4.38723e-06 -0.000249873)
(-0.000237001 3.6151e-06 7.91619e-08 -1.68758e-07 5.18725e-06 -0.000236942)
(-0.000222514 2.99339e-06 8.189e-08 -2.06704e-07 6.08273e-06 -0.000222388)
(-0.000206371 2.3685e-06 8.10777e-08 -2.6876e-07 7.05618e-06 -0.000206157)
(-0.000188597 1.76423e-06 7.56299e-08 -3.62483e-07 8.07004e-06 -0.000188268)
(-0.000169329 1.20932e-06 6.48614e-08 -4.94372e-07 9.05588e-06 -0.000168852)
(-0.000148868 7.34159e-07 4.9099e-08 -6.66509e-07 9.91168e-06 -0.000148209)
(-0.000127715 3.64708e-07 3.02279e-08 -8.72403e-07 1.05131e-05 -0.000126845)
(-0.000106559 1.14394e-07 1.16535e-08 -1.09462e-06 1.07439e-05 -0.000105465)
(-8.62045e-05 -2.19433e-08 -2.72405e-09 -1.30832e-06 1.0539e-05 -8.48962e-05)
(-6.74137e-05 -6.91765e-08 -1.04093e-08 -1.4927e-06 9.91946e-06 -6.59211e-05)
(-5.08213e-05 -6.43698e-08 -1.17759e-08 -1.64588e-06 8.99626e-06 -4.91755e-05)
(-3.67129e-05 -4.09724e-08 -9.2546e-09 -1.78219e-06 7.88996e-06 -3.49308e-05)
(-2.51207e-05 -1.92634e-08 -5.5399e-09 -1.91895e-06 6.67253e-06 -2.32018e-05)
(-1.59328e-05 -6.41022e-09 -2.47225e-09 -2.06303e-06 5.34918e-06 -1.38698e-05)
(-8.77476e-06 -1.15243e-09 -6.52461e-10 -2.12993e-06 3.76205e-06 -6.64483e-06)
(-2.80395e-06 6.0505e-15 6.0505e-15 -1.40198e-06 1.40197e-06 -1.40197e-06)
(-9.31701e-08 -1.03755e-12 -3.34391e-12 -8.49879e-08 2.63702e-08 -8.18219e-09)
(-0.00266077 3.22321e-06 -4.80814e-10 -3.96373e-09 -3.96915e-07 -0.00266078)
(-0.0026651 9.49544e-06 -4.12463e-09 -3.43341e-08 -1.15766e-06 -0.00266513)
(-0.002673 1.54023e-05 -1.05621e-08 -9.00072e-08 -1.83301e-06 -0.00267309)
(-0.00268364 2.09097e-05 -1.84304e-08 -1.65003e-07 -2.36544e-06 -0.0026838)
(-0.00269588 2.59889e-05 -2.6008e-08 -2.5324e-07 -2.69786e-06 -0.00269613)
(-0.00270856 3.06236e-05 -3.1613e-08 -3.49125e-07 -2.79607e-06 -0.0027089)
(-0.00272054 3.48025e-05 -3.37681e-08 -4.47772e-07 -2.63968e-06 -0.00272098)
(-0.00273078 3.85249e-05 -3.14197e-08 -5.45311e-07 -2.22714e-06 -0.00273132)
(-0.00273842 4.17983e-05 -2.40782e-08 -6.38905e-07 -1.57749e-06 -0.00273906)
(-0.00274283 4.464e-05 -1.18912e-08 -7.26718e-07 -7.30637e-07 -0.00274356)
(-0.00274367 4.70743e-05 4.42174e-09 -8.07699e-07 2.57716e-07 -0.00274448)
(-0.00274085 4.9131e-05 2.3719e-08 -8.81335e-07 1.3232e-06 -0.00274173)
(-0.00273455 5.08415e-05 4.46216e-08 -9.47368e-07 2.4e-06 -0.00273549)
(-0.00272512 5.22372e-05 6.56989e-08 -1.00563e-06 3.42739e-06 -0.00272612)
(-0.00271307 5.33436e-05 8.58884e-08 -1.05586e-06 4.3683e-06 -0.00271411)
(-0.00269889 5.41797e-05 1.04592e-07 -1.09771e-06 5.21009e-06 -0.00269997)
(-0.00268305 5.47559e-05 1.2176e-07 -1.13074e-06 5.96622e-06 -0.00268415)
(-0.00266585 5.50738e-05 1.37978e-07 -1.15451e-06 6.6788e-06 -0.00266697)
(-0.00264747 5.51269e-05 1.54526e-07 -1.16869e-06 7.42107e-06 -0.0026486)
(-0.00262781 5.49032e-05 1.73316e-07 -1.1733e-06 8.2953e-06 -0.00262894)
(-0.0026067 5.43862e-05 1.9686e-07 -1.16889e-06 9.43522e-06 -0.0026078)
(-0.00258375 5.35575e-05 2.2801e-07 -1.15702e-06 1.09996e-05 -0.00258481)
(-0.00255787 5.23922e-05 2.69378e-07 -1.14078e-06 1.31511e-05 -0.00255888)
(-0.00252801 5.08775e-05 3.23169e-07 -1.12597e-06 1.6057e-05 -0.00252893)
(-0.00249294 4.90085e-05 3.90675e-07 -1.12192e-06 1.98714e-05 -0.00249374)
(-0.00245137 4.67884e-05 4.7172e-07 -1.14227e-06 2.47122e-05 -0.00245201)
(-0.002402 4.42241e-05 5.63695e-07 -1.20454e-06 3.06117e-05 -0.00240243)
(-0.00234373 4.13175e-05 6.60921e-07 -1.32812e-06 3.74811e-05 -0.00234386)
(-0.00227585 3.80734e-05 7.56652e-07 -1.5357e-06 4.52113e-05 -0.00227559)
(-0.00219805 3.45689e-05 8.50625e-07 -1.87409e-06 5.4054e-05 -0.00219727)
(-0.00210924 3.09205e-05 9.44976e-07 -2.4219e-06 6.44011e-05 -0.00210772)
(-0.00200821 2.71929e-05 1.03511e-06 -3.27439e-06 7.63327e-05 -0.00200567)
(-0.00189414 2.34424e-05 1.1134e-06 -4.55398e-06 8.97602e-05 -0.00189016)
(-0.00176648 1.97521e-05 1.17231e-06 -6.42226e-06 0.000104474 -0.0017605)
(-0.00162514 1.62211e-05 1.2041e-06 -9.06855e-06 0.000119974 -0.00161639)
(-0.00147079 1.29467e-05 1.20121e-06 -1.26679e-05 0.000135297 -0.00145835)
(-0.00130527 1.00048e-05 1.15689e-06 -1.73001e-05 0.00014894 -0.00128812)
(-0.00113194 7.43123e-06 1.0652e-06 -2.28393e-05 0.000158987 -0.0011092)
(-0.000955799 5.21776e-06 9.20359e-07 -2.88701e-05 0.000163506 -0.000926988)
(-0.000783318 3.34494e-06 7.2043e-07 -3.47408e-05 0.000161231 -0.000748607)
(-0.000622074 1.83844e-06 4.81173e-07 -3.9887e-05 0.000152376 -0.000582198)
(-0.00047722 7.76492e-07 2.47764e-07 -4.40988e-05 0.000138201 -0.000433124)
(-0.000351808 2.07497e-07 8.19925e-08 -4.7514e-05 0.000120242 -0.000304295)
(-0.000245322 1.28403e-08 6.48153e-09 -4.98157e-05 9.86879e-05 -0.000195507)
(-0.000151482 -1.17175e-08 -7.95937e-09 -4.78274e-05 7.04097e-05 -0.000103655)
(-6.28526e-05 4.55294e-14 4.55294e-14 -3.14263e-05 3.14263e-05 -3.14263e-05)
(-8.77475e-06 6.52477e-10 1.15246e-09 -6.64483e-06 3.76205e-06 -2.12992e-06)
(-2.32693e-07 4.60442e-12 2.60267e-11 -2.25631e-07 3.99167e-08 -7.06172e-09)
(-0.0092034 9.35454e-06 -2.06901e-09 -9.9584e-09 -2.03558e-06 -0.0092034)
(-0.00921466 2.75628e-05 -1.77457e-08 -8.62653e-08 -5.93263e-06 -0.00921474)
(-0.0092352 4.47094e-05 -4.54188e-08 -2.25977e-07 -9.38173e-06 -0.00923541)
(-0.00926276 6.07101e-05 -7.92366e-08 -4.13686e-07 -1.20894e-05 -0.00926314)
(-0.00929441 7.55036e-05 -1.11835e-07 -6.33751e-07 -1.37667e-05 -0.009295)
(-0.00932714 8.9048e-05 -1.3599e-07 -8.71913e-07 -1.4244e-05 -0.00932797)
(-0.00935806 0.000101313 -1.45328e-07 -1.11611e-06 -1.34236e-05 -0.00935914)
(-0.00938454 0.000112291 -1.35246e-07 -1.35723e-06 -1.1303e-05 -0.00938587)
(-0.00940444 0.000121988 -1.03544e-07 -1.58913e-06 -7.98251e-06 -0.00940602)
(-0.00941622 0.000130433 -5.07662e-08 -1.80819e-06 -3.6649e-06 -0.00941802)
(-0.009419 0.000137669 2.00343e-08 -2.01239e-06 1.3707e-06 -0.00942101)
(-0.00941259 0.000143751 1.03919e-07 -2.20032e-06 6.80444e-06 -0.00941478)
(-0.00939737 0.000148741 1.94855e-07 -2.3704e-06 1.23108e-05 -0.00939971)
(-0.00937418 0.000152703 2.8655e-07 -2.52051e-06 1.75908e-05 -0.00937663)
(-0.00934416 0.000155696 3.74302e-07 -2.64829e-06 2.24638e-05 -0.00934671)
(-0.00930847 0.000157773 4.55466e-07 -2.75175e-06 2.68719e-05 -0.00931107)
(-0.00926813 0.000158973 5.2984e-07 -2.8298e-06 3.08893e-05 -0.00927075)
(-0.00922382 0.000159327 6.0001e-07 -2.88297e-06 3.47355e-05 -0.00922644)
(-0.00917579 0.000158856 6.71567e-07 -2.91422e-06 3.87902e-05 -0.00917837)
(-0.00912373 0.000157587 7.52801e-07 -2.93015e-06 4.35834e-05 -0.00912624)
(-0.00906735 0.000155538 8.54419e-07 -2.94174e-06 4.98083e-05 -0.00906974)
(-0.00900573 0.000152703 9.88252e-07 -2.96655e-06 5.82801e-05 -0.00900795)
(-0.00893571 0.00014908 1.16536e-06 -3.03334e-06 6.98462e-05 -0.00893765)
(-0.00885442 0.00014471 1.39573e-06 -3.18886e-06 8.53934e-05 -0.00885596)
(-0.00875862 0.000139637 1.68634e-06 -3.50373e-06 0.000105759 -0.00875957)
(-0.00864474 0.0001339 2.03942e-06 -4.07942e-06 0.000131637 -0.00864481)
(-0.00850903 0.000127481 2.44845e-06 -5.04831e-06 0.000163367 -0.0085078)
(-0.00834783 0.000120225 2.89312e-06 -6.56379e-06 0.000200768 -0.00834473)
(-0.00815806 0.000111884 3.34319e-06 -8.81331e-06 0.000243551 -0.00815232)
(-0.00793755 0.000102967 3.80738e-06 -1.21755e-05 0.000293104 -0.00792805)
(-0.0076825 9.44306e-05 4.33e-06 -1.72822e-05 0.000351532 -0.00766754)
(-0.00738879 8.65336e-05 4.9299e-06 -2.49208e-05 0.000419585 -0.00736591)
(-0.00705289 7.92818e-05 5.6182e-06 -3.61359e-05 0.000497296 -0.00701855)
(-0.00667161 7.276e-05 6.42018e-06 -5.23428e-05 0.000584139 -0.00662087)
(-0.00624245 6.69919e-05 7.3648e-06 -7.52721e-05 0.000678073 -0.00616863)
(-0.00576432 6.17876e-05 8.45721e-06 -0.000106683 0.000774484 -0.00565899)
(-0.00523853 5.66315e-05 9.62624e-06 -0.000147738 0.000865441 -0.00509205)
(-0.00466985 5.06624e-05 1.06454e-05 -0.000198041 0.000939759 -0.00447296)
(-0.00406767 4.28647e-05 1.10659e-05 -0.000254639 0.000984495 -0.003814)
(-0.00344723 3.26418e-05 1.02868e-05 -0.000311772 0.000988226 -0.00313614)
(-0.00283146 2.07964e-05 7.97004e-06 -0.000362786 0.000946167 -0.00246902)
(-0.00223885 1.0002e-05 4.67893e-06 -0.00040203 0.000859289 -0.00183692)
(-0.00167434 3.17664e-06 1.84301e-06 -0.000421665 0.000726775 -0.00125269)
(-0.0011177 5.05935e-07 3.7553e-07 -0.000397038 0.000534911 -0.000720662)
(-0.000561406 -1.81746e-13 -1.81746e-13 -0.000280703 0.000280703 -0.000280703)
(-0.000151482 7.95942e-09 1.17176e-08 -0.000103654 7.04096e-05 -4.78273e-05)
(-1.59328e-05 2.47225e-09 6.41025e-09 -1.38697e-05 5.34917e-06 -2.06303e-06)
(-4.38162e-07 3.21564e-11 2.64693e-10 -4.3179e-07 5.24563e-08 -6.37286e-09)
(-0.0172337 1.40009e-05 -4.35661e-09 -1.30431e-08 -5.36255e-06 -0.0172337)
(-0.017247 4.12562e-05 -3.73485e-08 -1.12823e-07 -1.56133e-05 -0.0172471)
(-0.017271 6.69256e-05 -9.55079e-08 -2.94512e-07 -2.4647e-05 -0.0172713)
(-0.0173033 9.09222e-05 -1.66568e-07 -5.35836e-07 -3.16992e-05 -0.0173037)
(-0.0173403 0.000113182 -2.35169e-07 -8.13615e-07 -3.60294e-05 -0.017341)
(-0.0173787 0.00013364 -2.86152e-07 -1.10736e-06 -3.72113e-05 -0.0173796)
(-0.0174152 0.000152241 -3.06084e-07 -1.40126e-06 -3.50136e-05 -0.0174165)
(-0.0174471 0.000168941 -2.85171e-07 -1.68558e-06 -2.94505e-05 -0.0174486)
(-0.0174719 0.000183712 -2.1867e-07 -1.95644e-06 -2.07965e-05 -0.0174738)
(-0.0174881 0.000196545 -1.07649e-07 -2.21417e-06 -9.57833e-06 -0.0174903)
(-0.0174947 0.000207449 4.14173e-08 -2.46058e-06 3.49283e-06 -0.0174971)
(-0.0174916 0.00021645 2.1796e-07 -2.6962e-06 1.76136e-05 -0.0174942)
(-0.017479 0.00022359 4.09032e-07 -2.91865e-06 3.19757e-05 -0.0174818)
(-0.0174578 0.00022892 6.012e-07 -3.1222e-06 4.58482e-05 -0.0174607)
(-0.0174291 0.000232507 7.84433e-07 -3.3001e-06 5.88017e-05 -0.017432)
(-0.0173938 0.000234426 9.53206e-07 -3.44712e-06 7.07243e-05 -0.0173967)
(-0.0173529 0.000234758 1.10727e-06 -3.56202e-06 8.18456e-05 -0.0173557)
(-0.0173068 0.000233588 1.25222e-06 -3.65016e-06 9.27756e-05 -0.0173094)
(-0.0172554 0.000231015 1.39969e-06 -3.72637e-06 0.000104544 -0.0172578)
(-0.017198 0.000227174 1.56663e-06 -3.8188e-06 0.000118595 -0.0172002)
(-0.0171347 0.000222184 1.7734e-06 -3.97275e-06 0.000136755 -0.0171365)
(-0.0170639 0.000216127 2.04112e-06 -4.25945e-06 0.000161138 -0.0170651)
(-0.0169817 0.000209125 2.38963e-06 -4.79269e-06 0.000194021 -0.0169821)
(-0.0168847 0.000201369 2.83682e-06 -5.75235e-06 0.000237819 -0.0168838)
(-0.016769 0.000193045 3.39549e-06 -7.40935e-06 0.000294861 -0.0167661)
(-0.0166303 0.000184305 4.0718e-06 -1.01567e-05 0.000367231 -0.0166243)
(-0.016464 0.000175133 4.85848e-06 -1.45253e-05 0.000456387 -0.0164532)
(-0.0162647 0.000164977 5.7167e-06 -2.11815e-05 0.000562921 -0.0162468)
(-0.0160267 0.000152327 6.54631e-06 -3.09955e-05 0.000687485 -0.0159986)
(-0.0157426 0.000138694 7.36782e-06 -4.55262e-05 0.000833935 -0.0156995)
(-0.0154073 0.000127976 8.40631e-06 -6.72604e-05 0.00100771 -0.0153422)
(-0.0150158 0.000120876 9.82157e-06 -9.94644e-05 0.00121208 -0.0149183)
(-0.0145621 0.000117137 1.17743e-05 -0.00014661 0.0014491 -0.0144174)
(-0.0140405 0.000117027 1.45538e-05 -0.000214834 0.00171951 -0.0138276)
(-0.0134449 0.000120615 1.85538e-05 -0.000311896 0.00202038 -0.0131352)
(-0.0127696 0.000127178 2.41681e-05 -0.000446389 0.00234209 -0.0123259)
(-0.0120082 0.000134686 3.15361e-05 -0.000625716 0.00266553 -0.0113857)
(-0.0111521 0.000139394 4.00544e-05 -0.000852461 0.0029601 -0.0103034)
(-0.0101887 0.000135747 4.76393e-05 -0.00111928 0.00318355 -0.00907345)
(-0.00909812 0.000117333 5.00577e-05 -0.00140277 0.00328383 -0.00769893)
(-0.00785506 8.155e-05 4.2201e-05 -0.00166027 0.00320627 -0.00619693)
(-0.00642118 3.88219e-05 2.44855e-05 -0.00182772 0.00289735 -0.00459411)
(-0.00473313 9.54261e-06 7.45912e-06 -0.00179515 0.00229654 -0.00293804)
(-0.00281513 -4.83122e-12 -4.83123e-12 -0.00140757 0.00140756 -0.00140756)
(-0.0011177 -3.75531e-07 -5.05937e-07 -0.000720662 0.000534911 -0.000397037)
(-0.000245322 -6.48157e-09 -1.28404e-08 -0.000195507 9.86878e-05 -4.98156e-05)
(-2.51207e-05 5.53991e-09 1.92634e-08 -2.32018e-05 6.67253e-06 -1.91895e-06)
(-7.10929e-07 1.00007e-10 1.09675e-09 -7.05069e-07 6.42909e-08 -5.86402e-09)
(-0.0223452 1.34769e-05 -5.78316e-09 -1.22429e-08 -9.58871e-06 -0.0223452)
(-0.022356 3.97064e-05 -4.95445e-08 -1.05329e-07 -2.78951e-05 -0.022356)
(-0.0223758 6.44196e-05 -1.26541e-07 -2.71802e-07 -4.39532e-05 -0.0223759)
(-0.0224023 8.75923e-05 -2.20574e-07 -4.84543e-07 -5.6413e-05 -0.0224025)
(-0.022433 0.000109167 -3.11468e-07 -7.13863e-07 -6.40036e-05 -0.0224333)
(-0.0224652 0.00012905 -3.79135e-07 -9.35225e-07 -6.59999e-05 -0.0224657)
(-0.0224967 0.000147139 -4.05735e-07 -1.13342e-06 -6.20341e-05 -0.0224974)
(-0.0225254 0.000163321 -3.78254e-07 -1.30499e-06 -5.2169e-05 -0.0225265)
(-0.0225499 0.000177491 -2.90552e-07 -1.45748e-06 -3.69139e-05 -0.0225512)
(-0.022569 0.000189556 -1.44436e-07 -1.60518e-06 -1.71968e-05 -0.0225706)
(-0.0225822 0.000199444 5.08375e-08 -1.76294e-06 5.75612e-06 -0.022584)
(-0.0225893 0.000207105 2.80417e-07 -1.94021e-06 3.05855e-05 -0.0225912)
(-0.0225906 0.00021252 5.26341e-07 -2.13785e-06 5.5949e-05 -0.0225924)
(-0.0225863 0.000215683 7.7033e-07 -2.34776e-06 8.06678e-05 -0.0225881)
(-0.022577 0.000216633 9.98785e-07 -2.5586e-06 0.000104089 -0.0225786)
(-0.022563 0.000215437 1.20427e-06 -2.7621e-06 0.000126121 -0.0225644)
(-0.0225446 0.000212184 1.38617e-06 -2.95924e-06 0.000147275 -0.0225456)
(-0.0225214 0.000206985 1.55082e-06 -3.16662e-06 0.000168731 -0.022522)
(-0.0224929 0.000199958 1.7106e-06 -3.42374e-06 0.000192409 -0.0224931)
(-0.0224583 0.000191219 1.88144e-06 -3.80225e-06 0.00022095 -0.0224577)
(-0.0224176 0.000180949 2.07947e-06 -4.421e-06 0.00025759 -0.0224161)
(-0.0223689 0.000169365 2.31751e-06 -5.47013e-06 0.000306028 -0.022366)
(-0.022309 0.00015664 2.60092e-06 -7.24918e-06 0.000370326 -0.022304)
(-0.0222352 0.000142969 2.92549e-06 -1.02259e-05 0.000454797 -0.0222268)
(-0.0221446 0.00012855 3.27412e-06 -1.51026e-05 0.000563648 -0.022131)
(-0.0220342 0.000113575 3.61596e-06 -2.28982e-05 0.000700809 -0.0220125)
(-0.0219007 9.8064e-05 3.89965e-06 -3.5018e-05 0.000869535 -0.0218665)
(-0.0217401 8.10734e-05 4.00908e-06 -5.33345e-05 0.00107243 -0.0216874)
(-0.0215482 5.68918e-05 3.48152e-06 -8.05454e-05 0.00131374 -0.021468)
(-0.0213199 3.0013e-05 2.26535e-06 -0.000120816 0.00160009 -0.0211992)
(-0.0210506 1.10373e-05 1.02533e-06 -0.000180114 0.0019388 -0.0208705)
(-0.0207374 -3.45401e-07 -3.94318e-08 -0.000266794 0.00233697 -0.0204707)
(-0.0203786 -5.62365e-06 -7.87994e-07 -0.000392411 0.0028005 -0.0199862)
(-0.0199734 -3.70664e-06 -6.3671e-07 -0.000572461 0.0033326 -0.0194009)
(-0.019522 6.6949e-06 1.40763e-06 -0.00082647 0.00393081 -0.0186956)
(-0.0190237 2.63359e-05 6.76209e-06 -0.00117665 0.00458248 -0.0178472)
(-0.0184716 5.48791e-05 1.71536e-05 -0.00164423 0.0052598 -0.0168277)
(-0.0178432 8.99917e-05 3.41136e-05 -0.00224239 0.00591407 -0.0156018)
(-0.0170842 0.000124934 5.72274e-05 -0.00296402 0.00646841 -0.0141224)
(-0.0160747 0.000142593 7.87219e-05 -0.00375655 0.00680145 -0.0123215)
(-0.0145703 0.000116229 7.73575e-05 -0.00447419 0.00672045 -0.0100988)
(-0.0122192 4.94398e-05 3.99567e-05 -0.00482815 0.00597362 -0.0073917)
(-0.00876661 -3.77185e-11 -3.77185e-11 -0.00438331 0.00438331 -0.00438331)
(-0.00473313 -7.45914e-06 -9.54264e-06 -0.00293804 0.00229654 -0.00179515)
(-0.00167434 -1.84301e-06 -3.17665e-06 -0.00125269 0.000726774 -0.000421664)
(-0.000351808 -8.19926e-08 -2.07497e-07 -0.000304294 0.000120242 -4.75139e-05)
(-3.67129e-05 9.25459e-09 4.09724e-08 -3.49308e-05 7.88995e-06 -1.78218e-06)
(-1.05321e-06 2.1712e-10 3.01636e-09 -1.04779e-06 7.54204e-08 -5.43751e-09)
(-0.0240243 9.6001e-06 -5.58492e-09 -1.1967e-08 -1.39763e-05 -0.0240243)
(-0.0240243 2.82492e-05 -4.77844e-08 -1.01957e-07 -4.06377e-05 -0.0240243)
(-0.0240243 4.5749e-05 -1.21653e-07 -2.56996e-07 -6.38837e-05 -0.0240242)
(-0.0240242 6.21075e-05 -2.11334e-07 -4.38722e-07 -8.17466e-05 -0.0240241)
(-0.0240241 7.72495e-05 -2.97428e-07 -6.04533e-07 -9.24969e-05 -0.024024)
(-0.024024 9.10456e-05 -3.60645e-07 -7.21995e-07 -9.51612e-05 -0.024024)
(-0.0240239 0.000103357 -3.84213e-07 -7.76647e-07 -8.93039e-05 -0.024024)
(-0.0240238 0.000114023 -3.56452e-07 -7.75962e-07 -7.51011e-05 -0.0240241)
(-0.0240237 0.000122889 -2.72853e-07 -7.47052e-07 -5.33402e-05 -0.0240243)
(-0.0240237 0.000129806 -1.37009e-07 -7.28141e-07 -2.53567e-05 -0.0240243)
(-0.0240236 0.000134645 4.00446e-08 -7.56766e-07 7.14485e-06 -0.0240243)
(-0.0240235 0.000137296 2.41903e-07 -8.59237e-07 4.23271e-05 -0.0240243)
(-0.0240235 0.000137677 4.49492e-07 -1.0451e-06 7.84315e-05 -0.024024)
(-0.0240235 0.00013571 6.4392e-07 -1.30749e-06 0.000113985 -0.0240237)
(-0.0240235 0.000131361 8.10716e-07 -1.63332e-06 0.00014826 -0.0240233)
(-0.0240235 0.000124626 9.40747e-07 -2.01535e-06 0.000181332 -0.0240228)
(-0.0240235 0.000115514 1.02972e-06 -2.46434e-06 0.000214135 -0.0240222)
(-0.0240235 0.00010404 1.07649e-06 -3.02223e-06 0.00024854 -0.0240214)
(-0.0240235 9.02018e-05 1.07941e-06 -3.77837e-06 0.000287437 -0.0240204)
(-0.0240234 7.39483e-05 1.0303e-06 -4.89017e-06 0.000334645 -0.024019)
(-0.0240233 5.53174e-05 9.09406e-07 -6.61834e-06 0.000394831 -0.0240169)
(-0.0240231 3.44416e-05 6.78918e-07 -9.3804e-06 0.000473363 -0.0240138)
(-0.0240228 1.13039e-05 2.71251e-07 -1.383e-05 0.000576122 -0.024009)
(-0.0240224 -1.41662e-05 -4.18728e-07 -2.09781e-05 0.000709439 -0.0240014)
(-0.0240218 -4.20509e-05 -1.542e-06 -3.23316e-05 0.000879688 -0.0239896)
(-0.024021 -7.24004e-05 -3.30175e-06 -5.00721e-05 0.00109318 -0.0239713)
(-0.0240199 -0.0001052 -5.95745e-06 -7.72458e-05 0.00135589 -0.0239435)
(-0.0240184 -0.00014022 -9.81787e-06 -0.000117997 0.0016735 -0.023902)
(-0.0240166 -0.000177945 -1.53245e-05 -0.000178138 0.00205307 -0.0238411)
(-0.0238919 -0.000215889 -2.27807e-05 -0.000265068 0.00249332 -0.0236307)
(-0.0236947 -0.000253355 -3.26767e-05 -0.000390461 0.00300604 -0.0233097)
(-0.0234825 -0.000289815 -4.55754e-05 -0.000570368 0.00360367 -0.0229195)
(-0.0232634 -0.000322952 -6.17612e-05 -0.00082543 0.00429191 -0.0224472)
(-0.0230486 -0.000348816 -8.09023e-05 -0.00118214 0.00507288 -0.0218776)
(-0.0228511 -0.000361339 -0.000101332 -0.00167224 0.00594103 -0.0211912)
(-0.0226793 -0.000352408 -0.000119081 -0.00233025 0.00687812 -0.0203613)
(-0.0225277 -0.000312893 -0.000126915 -0.0031878 0.00784665 -0.01935)
(-0.0223586 -0.00023588 -0.000114433 -0.00426272 0.00878039 -0.018102)
(-0.0220749 -0.000124345 -7.19626e-05 -0.00553949 0.00957014 -0.0165373)
(-0.0214731 -1.31898e-05 -9.1053e-06 -0.00693036 0.0100392 -0.0145427)
(-0.0200954 4.02244e-05 3.32378e-05 -0.0081538 0.00986756 -0.0119419)
(-0.0171627 -9.1402e-11 -9.1402e-11 -0.00858133 0.00858133 -0.00858133)
(-0.0122192 -3.99568e-05 -4.944e-05 -0.0073917 0.00597362 -0.00482815)
(-0.00642117 -2.44855e-05 -3.8822e-05 -0.00459411 0.00289735 -0.00182772)
(-0.00223884 -4.67893e-06 -1.0002e-05 -0.00183692 0.000859288 -0.00040203)
(-0.000477219 -2.47764e-07 -7.76493e-07 -0.000433124 0.000138201 -4.40987e-05)
(-5.08212e-05 1.17759e-08 6.43697e-08 -4.91755e-05 8.99625e-06 -1.64588e-06)
(-1.46665e-06 3.6272e-10 6.19679e-09 -1.46166e-06 8.55548e-08 -5.0341e-09)
(-0.0240234 4.81321e-06 -3.68308e-09 -1.50309e-08 -1.83828e-05 -0.0240234)
(-0.0240234 1.41314e-05 -3.14363e-08 -1.27197e-07 -5.34416e-05 -0.0240233)
(-0.0240235 2.27562e-05 -7.94597e-08 -3.1446e-07 -8.38838e-05 -0.0240232)
(-0.0240235 3.06823e-05 -1.3683e-07 -5.16956e-07 -0.000107133 -0.0240231)
(-0.0240236 3.78228e-05 -1.90592e-07 -6.69547e-07 -0.000121054 -0.0240231)
(-0.0240237 4.40077e-05 -2.27936e-07 -7.25079e-07 -0.000124426 -0.0240231)
(-0.0240238 4.90613e-05 -2.38427e-07 -6.67563e-07 -0.000116748 -0.0240233)
(-0.0240239 5.27831e-05 -2.15978e-07 -5.18193e-07 -9.82993e-05 -0.0240236)
(-0.024024 5.49809e-05 -1.60505e-07 -3.30566e-07 -7.01324e-05 -0.024024)
(-0.0240242 5.54616e-05 -7.8407e-08 -1.76052e-07 -3.39633e-05 -0.0240242)
(-0.0240243 5.40445e-05 1.81473e-08 -1.24286e-07 8.067e-06 -0.0240244)
(-0.0240244 5.05578e-05 1.13021e-07 -2.26455e-07 5.37059e-05 -0.0240244)
(-0.0240245 4.48361e-05 1.88248e-07 -5.07177e-07 0.000100867 -0.0240242)
(-0.0240247 3.66901e-05 2.25877e-07 -9.66549e-07 0.000147899 -0.0240238)
(-0.0240248 2.59612e-05 2.09776e-07 -1.59659e-06 0.000194116 -0.0240232)
(-0.0240249 1.25025e-05 1.24847e-07 -2.40192e-06 0.000239883 -0.0240225)
(-0.0240249 -3.848e-06 -4.59198e-08 -3.42143e-06 0.000286659 -0.0240215)
(-0.024025 -2.32645e-05 -3.26476e-07 -4.75287e-06 0.000337082 -0.0240203)
(-0.024025 -4.59489e-05 -7.55661e-07 -6.58395e-06 0.000395 -0.0240186)
(-0.0240249 -7.21089e-05 -1.39719e-06 -9.23287e-06 0.000465334 -0.0240161)
(-0.0240247 -0.000101902 -2.35132e-06 -1.3217e-05 0.000554059 -0.0240124)
(-0.0240244 -0.000135423 -3.76815e-06 -1.935e-05 0.000667963 -0.0240066)
(-0.0240239 -0.000172848 -5.86551e-06 -2.88778e-05 0.0008143 -0.0239975)
(-0.0240232 -0.000214329 -8.94403e-06 -4.36772e-05 0.00100075 -0.0239833)
(-0.024022 -0.000259975 -1.34007e-05 -6.64778e-05 0.00123496 -0.0239612)
(-0.0240205 -0.000309695 -1.97336e-05 -0.000101142 0.00152439 -0.0239274)
(-0.0240184 -0.00036296 -2.8526e-05 -0.000152965 0.00187608 -0.0238765)
(-0.0240157 -0.000417886 -4.03332e-05 -0.000228994 0.00229653 -0.0238014)
(-0.0240124 -0.000467068 -5.50551e-05 -0.000338273 0.00279164 -0.0236925)
(-0.0240085 -0.000514967 -7.38009e-05 -0.000494444 0.00337147 -0.0235366)
(-0.0240043 -0.000572431 -9.94069e-05 -0.000716767 0.00404649 -0.0233156)
(-0.0239995 -0.000634056 -0.000132935 -0.00102801 0.00481984 -0.0230065)
(-0.0239945 -0.000689673 -0.000173888 -0.00145524 0.00568815 -0.0225814)
(-0.0239899 -0.000729101 -0.000220198 -0.00202943 0.00663963 -0.0220088)
(-0.0239862 -0.00074009 -0.000266692 -0.00278252 0.00765009 -0.0212553)
(-0.0239844 -0.000709936 -0.000304109 -0.0037435 0.00868106 -0.0202906)
(-0.0239845 -0.000629077 -0.000319305 -0.00493414 0.00968007 -0.0190919)
(-0.0239862 -0.00049477 -0.00029691 -0.00636471 0.010583 -0.0176493)
(-0.023988 -0.000308719 -0.000218837 -0.00802832 0.0113173 -0.0159716)
(-0.0239881 -0.000111434 -9.34884e-05 -0.00991021 0.0118115 -0.0140796)
(-0.0231774 1.90547e-11 1.90547e-11 -0.0115887 0.0115887 -0.0115887)
(-0.0200954 -3.32379e-05 -4.02245e-05 -0.0119419 0.00986756 -0.00815379)
(-0.0145703 -7.73576e-05 -0.00011623 -0.0100988 0.00672044 -0.00447418)
(-0.00785506 -4.2201e-05 -8.155e-05 -0.00619693 0.00320627 -0.00166027)
(-0.00283146 -7.97004e-06 -2.07964e-05 -0.00246902 0.000946166 -0.000362786)
(-0.000622073 -4.81172e-07 -1.83844e-06 -0.000582198 0.000152376 -3.98869e-05)
(-6.74136e-05 1.04093e-08 6.91763e-08 -6.59211e-05 9.91945e-06 -1.4927e-06)
(-1.95012e-06 4.73047e-10 9.79247e-09 -1.94563e-06 9.39856e-08 -4.58946e-09)
(-0.0240218 -6.78373e-08 6.60841e-11 -2.27964e-08 -2.3401e-05 -0.0240218)
(-0.0240219 -2.6736e-07 7.56416e-10 -1.92282e-07 -6.79622e-05 -0.0240217)
(-0.024022 -7.43845e-07 3.29692e-09 -4.71924e-07 -0.00010647 -0.0240215)
(-0.0240222 -1.54929e-06 8.75292e-09 -7.66823e-07 -0.000135712 -0.0240214)
(-0.0240224 -2.77403e-06 1.76809e-08 -9.76176e-07 -0.000153106 -0.0240214)
(-0.0240226 -4.62523e-06 3.0262e-08 -1.02922e-06 -0.000157169 -0.0240216)