/*--------------------------------*- C++ -*----------------------------------*\
| =========                 |                                                 |
| \\      /  F ield         | OpenFOAM: The Open Source CFD Toolbox           |
|  \\    /   O peration     | Version:  2412                                  |
|   \\  /    A nd           | Website:  www.openfoam.com                      |
|    \\/     M anipulation  |                                                 |
\*---------------------------------------------------------------------------*/
FoamFile
{
    version     2.0;
    format      ascii;
    arch        "LSB;label=32;scalar=64";
    class       volSymmTensorField;
    location    "1830";
    object      Tij5;
}
// * * * * * * * * * * * * * * * * * * * * * * * * * * * * * * * * * * * * * //

dimensions      [0 0 0 0 0 0 0];

internalField   nonuniform List<symmTensor> 
2304
(
(7.09432e-11 -9.29677e-14 4.38337e-14 1.17003e-16 -8.97454e-15 -7.09433e-11)
(7.07691e-11 -2.73168e-13 4.35196e-14 1.01663e-15 -8.27881e-15 -7.07701e-11)
(7.02569e-11 -4.39838e-13 4.28085e-14 2.66318e-15 2.14391e-15 -7.02596e-11)
(6.94569e-11 -5.90318e-13 4.16708e-14 4.86333e-15 3.23915e-15 -6.94617e-11)
(6.84493e-11 -7.233e-13 4.02812e-14 7.42923e-15 4.89101e-15 -6.84568e-11)
(6.72563e-11 -8.38153e-13 3.87047e-14 1.01836e-14 7.6615e-15 -6.72665e-11)
(6.59441e-11 -9.35499e-13 3.70435e-14 1.29788e-14 1.12995e-14 -6.59571e-11)
(6.45623e-11 -1.01649e-12 3.53752e-14 1.56968e-14 1.58258e-14 -6.4578e-11)
(6.31795e-11 -1.08313e-12 3.3784e-14 1.82593e-14 2.09725e-14 -6.31978e-11)
(6.18468e-11 -1.13757e-12 3.23293e-14 2.0619e-14 2.66794e-14 -6.18674e-11)
(6.06068e-11 -1.18211e-12 3.1052e-14 2.27584e-14 3.27336e-14 -6.06296e-11)
(5.94749e-11 -1.21873e-12 2.99681e-14 2.46801e-14 3.924e-14 -5.94996e-11)
(5.84392e-11 -1.24878e-12 2.90571e-14 2.63923e-14 4.59396e-14 -5.84656e-11)
(5.74706e-11 -1.27339e-12 2.83105e-14 2.79195e-14 5.37693e-14 -5.74985e-11)
(5.646e-11 -1.29167e-12 2.76208e-14 2.92511e-14 6.2728e-14 -5.64893e-11)
(5.53458e-11 -1.30349e-12 2.69452e-14 3.03998e-14 7.35319e-14 -5.53762e-11)
(5.39852e-11 -1.30644e-12 2.61608e-14 3.13222e-14 8.665e-14 -5.40165e-11)
(5.22966e-11 -1.29935e-12 2.52253e-14 3.20063e-14 1.03235e-13 -5.23286e-11)
(5.01175e-11 -1.2787e-12 2.40206e-14 3.23729e-14 1.23886e-13 -5.01499e-11)
(4.73848e-11 -1.24316e-12 2.25173e-14 3.23867e-14 1.48519e-13 -4.74172e-11)
(4.40078e-11 -1.19032e-12 2.07006e-14 3.19636e-14 1.77499e-13 -4.40398e-11)
(3.99776e-11 -1.12016e-12 1.86915e-14 3.10697e-14 2.12549e-13 -4.00087e-11)
(3.52304e-11 -1.03152e-12 1.65804e-14 2.96293e-14 2.5433e-13 -3.52601e-11)
(2.98328e-11 -9.26403e-13 1.44731e-14 2.76294e-14 2.99469e-13 -2.98605e-11)
(2.39412e-11 -8.08683e-13 1.25503e-14 2.50781e-14 3.45112e-13 -2.39663e-11)
(1.78232e-11 -6.84243e-13 1.09006e-14 2.20337e-14 3.84222e-13 -1.78452e-11)
(1.18895e-11 -5.61666e-13 9.67332e-15 1.86324e-14 4.13883e-13 -1.19081e-11)
(6.39234e-12 -4.45771e-13 8.98951e-15 1.49555e-14 4.36969e-13 -6.4073e-12)
(9.27972e-13 -3.38229e-13 1.08546e-14 1.06476e-14 5.44144e-13 -9.3862e-13)
(-6.88234e-12 -2.03448e-13 1.49024e-14 4.95424e-15 6.98817e-13 6.87738e-12)
(-1.58902e-11 -6.90215e-14 1.95604e-14 -9.75118e-16 7.83346e-13 1.58912e-11)
(-2.46114e-11 4.15326e-14 2.56314e-14 -7.1204e-15 8.19386e-13 2.46185e-11)
(-3.23626e-11 1.18096e-13 3.31529e-14 -1.35319e-14 8.1706e-13 3.23761e-11)
(-3.83497e-11 1.52758e-13 4.07544e-14 -1.95106e-14 7.48827e-13 3.83692e-11)
(-4.14888e-11 1.43005e-13 4.59132e-14 -2.3492e-14 5.84315e-13 4.15122e-11)
(-4.06496e-11 9.72494e-14 4.53851e-14 -2.28403e-14 3.09776e-13 4.06725e-11)
(-3.51698e-11 3.74747e-14 3.6978e-14 -1.4385e-14 -4.83691e-14 3.51842e-11)
(-2.54879e-11 -7.37355e-15 2.23909e-14 3.40502e-15 -4.05088e-13 2.54845e-11)
(-1.35733e-11 -1.8443e-14 8.48465e-15 2.72891e-14 -6.37355e-13 1.3546e-11)
(-2.5676e-12 -2.38604e-15 2.84801e-15 4.57886e-14 -6.22729e-13 2.52181e-12)
(4.25365e-12 1.40059e-14 5.23617e-15 4.34506e-14 -3.45572e-13 -4.2971e-12)
(5.65313e-12 1.3574e-14 6.90663e-15 2.28879e-14 -2.92477e-14 -5.67602e-12)
(3.86884e-12 5.85419e-15 4.39922e-15 3.98904e-15 1.117e-13 -3.87283e-12)
(1.77784e-12 1.34411e-15 1.54812e-15 -3.54918e-15 1.00357e-13 -1.77429e-12)
(5.57964e-13 1.43632e-16 3.00284e-16 -3.69055e-15 4.88574e-14 -5.54273e-13)
(1.03623e-13 1.65817e-18 2.52204e-17 -1.71069e-15 1.38496e-14 -1.01913e-13)
(7.71643e-15 -2.91701e-19 4.47994e-19 -2.83052e-16 1.60934e-15 -7.43338e-15)
(2.81248e-16 -4.52538e-21 4.52085e-21 -1.40627e-16 1.40624e-16 -1.40621e-16)
(-1.21904e-08 2.59965e-11 6.47923e-12 -4.77797e-14 6.19944e-12 1.21905e-08)
(-1.27073e-08 7.82075e-11 7.05237e-12 -4.19659e-13 1.69055e-11 1.27077e-08)
(-1.31988e-08 1.28608e-10 7.6267e-12 -1.10455e-12 2.72859e-11 1.31999e-08)
(-1.39224e-08 1.78101e-10 8.51021e-12 -2.03669e-12 3.79965e-11 1.39245e-08)
(-1.48099e-08 2.26577e-10 9.64088e-12 -3.14962e-12 4.69231e-11 1.4813e-08)
(-1.57975e-08 2.73657e-10 1.09641e-11 -4.37859e-12 5.38069e-11 1.58019e-08)
(-1.68114e-08 3.18495e-10 1.23939e-11 -5.65969e-12 5.79916e-11 1.68171e-08)
(-1.77818e-08 3.60151e-10 1.38347e-11 -6.93566e-12 5.91343e-11 1.77887e-08)
(-1.8641e-08 3.97576e-10 1.51757e-11 -8.15512e-12 5.70345e-11 1.86492e-08)
(-1.93361e-08 4.2992e-10 1.63188e-11 -9.27753e-12 5.20093e-11 1.93454e-08)
(-1.98312e-08 4.56582e-10 1.71886e-11 -1.02734e-11 4.47565e-11 1.98415e-08)
(-2.01146e-08 4.77353e-10 1.77553e-11 -1.11257e-11 3.64556e-11 2.01257e-08)
(-2.01971e-08 4.92404e-10 1.80318e-11 -1.18293e-11 2.83664e-11 2.02089e-08)
(-2.01112e-08 5.02202e-10 1.81015e-11 -1.23878e-11 2.29608e-11 2.01236e-08)
(-1.9923e-08 5.07743e-10 1.80959e-11 -1.28138e-11 2.16825e-11 1.99358e-08)
(-1.96902e-08 5.09786e-10 1.81447e-11 -1.31143e-11 2.6113e-11 1.97033e-08)
(-1.94923e-08 5.09505e-10 1.84167e-11 -1.33035e-11 3.75288e-11 1.95056e-08)
(-1.93899e-08 5.07588e-10 1.90611e-11 -1.33845e-11 5.7394e-11 1.94033e-08)
(-1.94574e-08 5.05029e-10 2.02389e-11 -1.33684e-11 8.61362e-11 1.94707e-08)
(-1.97319e-08 5.02073e-10 2.20342e-11 -1.32575e-11 1.22971e-10 1.97452e-08)
(-2.02442e-08 4.98993e-10 2.45414e-11 -1.30768e-11 1.67065e-10 2.02572e-08)
(-2.09838e-08 4.95219e-10 2.78185e-11 -1.28649e-11 2.18065e-10 2.09967e-08)
(-2.19378e-08 4.90255e-10 3.18948e-11 -1.26945e-11 2.73882e-10 2.19505e-08)
(-2.30415e-08 4.82833e-10 3.6602e-11 -1.26387e-11 3.28004e-10 2.30542e-08)
(-2.41889e-08 4.71421e-10 4.16433e-11 -1.27783e-11 3.72913e-10 2.42017e-08)
(-2.5231e-08 4.5433e-10 4.64978e-11 -1.31333e-11 3.98054e-10 2.52441e-08)
(-2.59775e-08 4.29795e-10 5.06158e-11 -1.37069e-11 4.00945e-10 2.59912e-08)
(-2.63105e-08 3.97802e-10 5.42239e-11 -1.50292e-11 4.12969e-10 2.63255e-08)
(-2.64474e-08 3.60651e-10 5.99172e-11 -1.9804e-11 5.40817e-10 2.64672e-08)
(-2.71848e-08 3.28696e-10 6.91802e-11 -2.91337e-11 7.33764e-10 2.7214e-08)
(-2.81696e-08 2.96316e-10 7.85254e-11 -4.04245e-11 8.45466e-10 2.821e-08)
(-2.88648e-08 2.59392e-10 8.64738e-11 -5.35624e-11 8.77803e-10 2.89184e-08)
(-2.90344e-08 2.17993e-10 9.23837e-11 -6.86626e-11 8.44514e-10 2.91031e-08)
(-2.8435e-08 1.72906e-10 9.44757e-11 -8.23126e-11 7.09899e-10 2.85173e-08)
(-2.674e-08 1.2587e-10 9.02566e-11 -8.631e-11 4.30716e-10 2.68263e-08)
(-2.36424e-08 8.0396e-11 7.76215e-11 -6.76298e-11 -5.36063e-12 2.371e-08)
(-1.90454e-08 4.17822e-11 5.67456e-11 -1.24941e-11 -5.4375e-10 1.90579e-08)
(-1.32729e-08 1.52233e-11 3.20296e-11 8.21423e-11 -1.04213e-09 1.31907e-08)
(-7.17255e-09 2.48861e-12 1.16845e-11 1.93231e-10 -1.3039e-09 6.97931e-09)
(-1.93855e-09 -1.45887e-13 2.56109e-12 2.63049e-10 -1.16348e-09 1.6755e-09)
(1.28499e-09 6.78555e-13 3.21118e-12 2.31665e-10 -6.55667e-10 -1.51665e-09)
(2.14665e-09 7.28068e-13 4.87641e-12 1.20487e-10 -1.21924e-10 -2.26714e-09)
(1.58204e-09 1.74907e-13 3.4097e-12 1.84848e-11 1.3984e-10 -1.60052e-09)
(7.80518e-10 -6.96342e-14 1.32339e-12 -2.62586e-11 1.54111e-10 -7.54259e-10)
(2.73964e-10 -5.6873e-14 3.01392e-13 -2.81079e-11 8.385e-11 -2.45856e-10)
(6.20392e-11 -1.45298e-14 3.44288e-14 -1.45623e-11 2.63004e-11 -4.74769e-11)
(4.73374e-12 -8.43684e-16 8.43675e-16 -2.36687e-12 2.36687e-12 -2.36687e-12)
(7.71701e-15 -4.48082e-19 2.91704e-19 -7.43392e-15 1.60947e-15 -2.83081e-16)
(-5.99018e-07 1.03446e-09 6.543e-10 -1.40271e-12 7.96395e-10 5.99019e-07)
(-6.11258e-07 3.07184e-09 6.8254e-10 -1.2809e-11 1.65079e-09 6.11271e-07)
(-6.24657e-07 5.00719e-09 7.12487e-10 -3.42795e-11 2.16761e-09 6.24691e-07)
(-6.44608e-07 6.85493e-09 7.60214e-10 -6.28831e-11 3.00378e-09 6.44671e-07)
(-6.69554e-07 8.61008e-09 8.21089e-10 -9.70919e-11 3.66981e-09 6.69651e-07)
(-6.97999e-07 1.02682e-08 8.9215e-10 -1.35162e-10 4.12957e-09 6.98134e-07)
(-7.28234e-07 1.18184e-08 9.69513e-10 -1.75444e-10 4.33799e-09 7.28409e-07)
(-7.58592e-07 1.32498e-08 1.0491e-09 -2.16384e-10 4.26957e-09 7.58809e-07)
(-7.87419e-07 1.45496e-08 1.12644e-09 -2.56438e-10 3.91605e-09 7.87676e-07)
(-8.13347e-07 1.57084e-08 1.19772e-09 -2.94161e-10 3.3049e-09 8.13641e-07)
(-8.35392e-07 1.67204e-08 1.26011e-09 -3.28316e-10 2.49527e-09 8.35721e-07)
(-8.53162e-07 1.75855e-08 1.3127e-09 -3.58062e-10 1.57661e-09 8.5352e-07)
(-8.66814e-07 1.83101e-08 1.35638e-09 -3.83075e-10 6.51791e-10 8.67197e-07)
(-8.77126e-07 1.89051e-08 1.39535e-09 -4.03664e-10 -1.09005e-10 8.77529e-07)
(-8.85863e-07 1.93929e-08 1.43642e-09 -4.20611e-10 -5.94173e-10 8.86284e-07)
(-8.94613e-07 1.97897e-08 1.48651e-09 -4.34782e-10 -6.96675e-10 8.95048e-07)
(-9.05658e-07 2.01214e-08 1.5552e-09 -4.47231e-10 -3.31458e-10 9.06105e-07)
(-9.20841e-07 2.04031e-08 1.65168e-09 -4.58877e-10 5.82273e-10 9.21299e-07)
(-9.42434e-07 2.0657e-08 1.78677e-09 -4.70813e-10 2.06025e-09 9.42905e-07)
(-9.71715e-07 2.0888e-08 1.96809e-09 -4.84131e-10 4.04353e-09 9.72199e-07)
(-1.00953e-06 2.1095e-08 2.20299e-09 -5.00956e-10 6.43557e-09 1.01003e-06)
(-1.05584e-06 2.12637e-08 2.49732e-09 -5.25138e-10 9.12383e-09 1.05636e-06)
(-1.11027e-06 2.13781e-08 2.85624e-09 -5.62258e-10 1.18964e-08 1.11083e-06)
(-1.17071e-06 2.14005e-08 3.2744e-09 -6.17158e-10 1.43149e-08 1.17133e-06)
(-1.23367e-06 2.12835e-08 3.73858e-09 -6.9267e-10 1.58705e-08 1.23437e-06)
(-1.29418e-06 2.09707e-08 4.22245e-09 -7.82877e-10 1.5899e-08 1.29497e-06)
(-1.3456e-06 2.03944e-08 4.69261e-09 -8.77898e-10 1.42046e-08 1.34648e-06)
(-1.38234e-06 1.95194e-08 5.14943e-09 -1.02239e-09 1.27203e-08 1.38336e-06)
(-1.40748e-06 1.83541e-08 5.70764e-09 -1.4731e-09 1.74279e-08 1.40896e-06)
(-1.44127e-06 1.7128e-08 6.46174e-09 -2.32168e-09 2.56118e-08 1.44359e-06)
(-1.47235e-06 1.57407e-08 7.22527e-09 -3.30972e-09 2.91224e-08 1.47566e-06)
(-1.4837e-06 1.41232e-08 7.8844e-09 -4.39971e-09 2.79145e-08 1.4881e-06)
(-1.46691e-06 1.22918e-08 8.37396e-09 -5.58646e-09 2.29043e-08 1.4725e-06)
(-1.41309e-06 1.02775e-08 8.55472e-09 -6.51829e-09 1.22456e-08 1.4196e-06)
(-1.31122e-06 8.13968e-09 8.23034e-09 -6.37165e-09 -6.27846e-09 1.31759e-06)
(-1.15212e-06 5.98683e-09 7.22206e-09 -3.86188e-09 -3.29626e-08 1.15598e-06)
(-9.34898e-07 3.98157e-09 5.50536e-09 2.34457e-09 -6.41212e-08 9.32553e-07)
(-6.73606e-07 2.30459e-09 3.36543e-09 1.24837e-08 -9.09534e-08 6.61122e-07)
(-4.00169e-07 1.08561e-09 1.4116e-09 2.41224e-08 -1.0155e-07 3.76047e-07)
(-1.5786e-07 3.36103e-10 2.61453e-10 3.11195e-08 -8.5893e-08 1.2674e-07)
(7.81723e-09 -2.29212e-11 2.64809e-11 2.68611e-08 -4.67766e-08 -3.46783e-08)
(7.21334e-08 -1.13714e-10 1.54204e-10 1.34864e-08 -7.47342e-09 -8.56199e-08)
(6.43687e-08 -8.42391e-11 1.60142e-10 1.26401e-09 1.1368e-08 -6.56327e-08)
(3.53406e-08 -3.93033e-11 7.56869e-11 -3.92356e-09 1.18158e-08 -3.1417e-08)
(1.28918e-08 -1.21796e-11 1.89533e-11 -3.52898e-09 5.77757e-09 -9.36282e-09)
(2.1888e-09 -1.69962e-12 1.69962e-12 -1.0944e-09 1.0944e-09 -1.0944e-09)
(6.20393e-11 -3.4429e-14 1.45297e-14 -4.7477e-11 2.63004e-11 -1.45623e-11)
(1.03625e-13 -2.52215e-17 -1.65862e-18 -1.01915e-13 1.38499e-14 -1.71072e-15)
(1.24003e-05 -1.02935e-08 4.35496e-08 1.08493e-11 4.76753e-09 -1.24003e-05)
(1.24603e-05 -3.05427e-08 4.39537e-08 8.86814e-11 9.40816e-09 -1.24604e-05)
(1.24425e-05 -4.9609e-08 4.37832e-08 2.27246e-10 1.24313e-08 -1.24427e-05)
(1.24089e-05 -6.74915e-08 4.35e-08 4.21812e-10 1.84959e-08 -1.24093e-05)
(1.23558e-05 -8.40725e-08 4.30691e-08 6.50552e-10 2.42574e-08 -1.23565e-05)
(1.22778e-05 -9.92103e-08 4.24559e-08 8.95569e-10 2.96104e-08 -1.22787e-05)
(1.21709e-05 -1.1276e-07 4.16368e-08 1.13966e-09 3.42652e-08 -1.2172e-05)
(1.20328e-05 -1.24586e-07 4.06014e-08 1.36877e-09 3.79568e-08 -1.20341e-05)
(1.18633e-05 -1.34593e-07 3.93575e-08 1.5737e-09 4.04359e-08 -1.18649e-05)
(1.16637e-05 -1.42729e-07 3.79267e-08 1.75076e-09 4.16524e-08 -1.16655e-05)
(1.1436e-05 -1.48995e-07 3.63407e-08 1.90029e-09 4.17858e-08 -1.14379e-05)
(1.11813e-05 -1.53428e-07 3.46312e-08 2.02386e-09 4.12731e-08 -1.11833e-05)
(1.08999e-05 -1.56095e-07 3.28273e-08 2.12125e-09 4.07439e-08 -1.0902e-05)
(1.05897e-05 -1.57081e-07 3.09577e-08 2.1866e-09 4.16719e-08 -1.05918e-05)
(1.02427e-05 -1.56418e-07 2.90112e-08 2.20878e-09 4.5126e-08 -1.02449e-05)
(9.852e-06 -1.5417e-07 2.69871e-08 2.17323e-09 5.23282e-08 -9.85417e-06)
(9.40485e-06 -1.5032e-07 2.4859e-08 2.06145e-09 6.44959e-08 -9.40691e-06)
(8.88967e-06 -1.4488e-07 2.26208e-08 1.85089e-09 8.29819e-08 -8.89152e-06)
(8.29007e-06 -1.3779e-07 2.02501e-08 1.51336e-09 1.08587e-07 -8.29158e-06)
(7.59444e-06 -1.29072e-07 1.77562e-08 1.01568e-09 1.41071e-07 -7.59546e-06)
(6.79319e-06 -1.1877e-07 1.51865e-08 2.9913e-10 1.8011e-07 -6.79349e-06)
(5.87972e-06 -1.06941e-07 1.26484e-08 -7.42863e-10 2.25787e-07 -5.87898e-06)
(4.84452e-06 -9.35983e-08 1.02621e-08 -2.25172e-09 2.76298e-07 -4.84227e-06)
(3.69069e-06 -7.89388e-08 8.18839e-09 -4.36897e-09 3.2679e-07 -3.68633e-06)
(2.43032e-06 -6.3249e-08 6.63676e-09 -7.22243e-09 3.71479e-07 -2.4231e-06)
(1.08505e-06 -4.68927e-08 5.80862e-09 -1.08034e-08 4.01895e-07 -1.07425e-06)
(-3.07875e-07 -3.03804e-08 5.94533e-09 -1.49925e-08 4.12616e-07 3.22867e-07)
(-1.70043e-06 -1.42818e-08 7.5381e-09 -2.04742e-08 4.20483e-07 1.7209e-06)
(-3.05768e-06 1.73955e-10 1.16316e-08 -3.14847e-08 4.90087e-07 3.08916e-06)
(-4.41973e-06 1.26214e-08 1.80813e-08 -4.9774e-08 5.95827e-07 4.46951e-06)
(-5.73049e-06 2.30301e-08 2.57398e-08 -7.12312e-08 6.46683e-07 5.80172e-06)
(-6.90594e-06 3.15727e-08 3.44607e-08 -9.51173e-08 6.3681e-07 7.00106e-06)
(-7.87956e-06 3.8222e-08 4.40135e-08 -1.20907e-07 5.70128e-07 8.00046e-06)
(-8.55892e-06 4.2806e-08 5.31045e-08 -1.41149e-07 4.1593e-07 8.70007e-06)
(-8.82697e-06 4.51107e-08 5.94472e-08 -1.38433e-07 1.36434e-07 8.9654e-06)
(-8.57369e-06 4.48641e-08 6.02291e-08 -8.4457e-08 -2.84528e-07 8.65815e-06)
(-7.73845e-06 4.17196e-08 5.33176e-08 5.33216e-08 -8.10513e-07 7.68513e-06)
(-6.34787e-06 3.52689e-08 3.9098e-08 2.88865e-07 -1.32434e-06 6.059e-06)
(-4.53294e-06 2.54801e-08 2.16276e-08 5.80353e-07 -1.63446e-06 3.95259e-06)
(-2.48934e-06 1.3411e-08 7.02613e-09 7.85759e-07 -1.5152e-06 1.70358e-06)
(-6.02345e-07 2.96538e-09 1.53434e-10 7.06684e-07 -9.01998e-07 -1.04339e-07)
(4.98691e-07 -1.55046e-09 2.72768e-10 3.55962e-07 -1.80559e-07 -8.54652e-07)
(6.93251e-07 -1.67792e-09 1.31604e-09 1.69721e-08 1.914e-07 -7.10223e-07)
(4.21326e-07 -8.20626e-10 9.0107e-10 -1.08648e-07 1.89231e-07 -3.12678e-07)
(1.27506e-07 -2.16058e-10 2.16058e-10 -6.3753e-08 6.3753e-08 -6.3753e-08)
(1.28918e-08 -1.89533e-11 1.21796e-11 -9.36282e-09 5.77757e-09 -3.52898e-09)
(2.73964e-10 -3.01393e-13 5.68726e-14 -2.45856e-10 8.385e-11 -2.81079e-11)
(5.57968e-13 -3.00289e-16 -1.43636e-16 -5.54277e-13 4.88577e-14 -3.69056e-15)
(5.83706e-05 -4.0931e-08 3.7652e-07 3.15202e-11 -3.69939e-09 -5.83706e-05)
(5.83851e-05 -1.20942e-07 3.76497e-07 3.00774e-10 3.73967e-09 -5.83854e-05)
(5.78737e-05 -1.94846e-07 3.69611e-07 8.28049e-10 2.2791e-08 -5.78746e-05)
(5.71597e-05 -2.62014e-07 3.60121e-07 1.52013e-09 3.98528e-08 -5.71612e-05)
(5.62849e-05 -3.22145e-07 3.48706e-07 2.31205e-09 6.06761e-08 -5.62873e-05)
(5.52867e-05 -3.75088e-07 3.35955e-07 3.12976e-09 8.54129e-08 -5.52899e-05)
(5.42051e-05 -4.20937e-07 3.22447e-07 3.9017e-09 1.12918e-07 -5.4209e-05)
(5.30804e-05 -4.59963e-07 3.08718e-07 4.57051e-09 1.41699e-07 -5.30849e-05)
(5.19512e-05 -4.92588e-07 2.95241e-07 5.10108e-09 1.70091e-07 -5.19563e-05)
(5.08496e-05 -5.19301e-07 2.82382e-07 5.48439e-09 1.97068e-07 -5.08551e-05)
(4.97973e-05 -5.40595e-07 2.70382e-07 5.7305e-09 2.2257e-07 -4.9803e-05)
(4.88011e-05 -5.56893e-07 2.59321e-07 5.85396e-09 2.47657e-07 -4.8807e-05)
(4.78551e-05 -5.68513e-07 2.49161e-07 5.85845e-09 2.74443e-07 -4.7861e-05)
(4.69379e-05 -5.75686e-07 2.39759e-07 5.71239e-09 3.08768e-07 -4.69437e-05)
(4.60059e-05 -5.78417e-07 2.30738e-07 5.35083e-09 3.55275e-07 -4.60113e-05)
(4.50188e-05 -5.76791e-07 2.21778e-07 4.67742e-09 4.19648e-07 -4.50235e-05)
(4.3922e-05 -5.70731e-07 2.1244e-07 3.56121e-09 5.08044e-07 -4.39255e-05)
(4.26712e-05 -5.60357e-07 2.02421e-07 1.82153e-09 6.27557e-07 -4.2673e-05)
(4.12153e-05 -5.45713e-07 1.9136e-07 -7.86983e-10 7.83441e-07 -4.12145e-05)
(3.95206e-05 -5.27168e-07 1.79063e-07 -4.60636e-09 9.77663e-07 -3.9516e-05)
(3.7528e-05 -5.04712e-07 1.65191e-07 -1.02189e-08 1.2124e-06 -3.75178e-05)
(3.5244e-05 -4.79037e-07 1.50093e-07 -1.85755e-08 1.491e-06 -3.52255e-05)
(3.26831e-05 -4.50897e-07 1.34182e-07 -3.09963e-08 1.81026e-06 -3.26521e-05)
(2.98741e-05 -4.21139e-07 1.17864e-07 -4.90708e-08 2.15602e-06 -2.9825e-05)
(2.68597e-05 -3.90587e-07 1.01617e-07 -7.46532e-08 2.511e-06 -2.67851e-05)
(2.36852e-05 -3.59802e-07 8.57707e-08 -1.09225e-07 2.84612e-06 -2.3576e-05)
(2.04153e-05 -3.29081e-07 7.0743e-08 -1.53715e-07 3.13535e-06 -2.02616e-05)
(1.71395e-05 -2.98041e-07 5.77124e-08 -2.12279e-07 3.41759e-06 -1.69272e-05)
(1.39073e-05 -2.67077e-07 4.93875e-08 -3.06466e-07 3.90188e-06 -1.36008e-05)
(9.43504e-06 -2.2708e-07 4.30559e-08 -4.5034e-07 4.50779e-06 -8.9847e-06)
(4.59797e-06 -1.89854e-07 4.11276e-08 -6.32337e-07 4.96486e-06 -3.96563e-06)
(1.82566e-07 -1.60538e-07 4.537e-08 -8.56197e-07 5.25691e-06 6.73632e-07)
(-3.64169e-06 -1.37546e-07 5.50498e-08 -1.12404e-06 5.36364e-06 4.76572e-06)
(-6.66475e-06 -1.1895e-07 6.64587e-08 -1.39614e-06 5.12138e-06 8.06089e-06)
(-8.72709e-06 -1.01556e-07 7.33929e-08 -1.5675e-06 4.31101e-06 1.02946e-05)
(-9.84325e-06 -8.06151e-08 6.90291e-08 -1.4475e-06 2.74212e-06 1.12907e-05)
(-1.02624e-05 -5.04518e-08 5.02191e-08 -7.6902e-07 3.55722e-07 1.10315e-05)
(-1.03511e-05 -8.50523e-09 2.31592e-08 7.15175e-07 -2.62548e-06 9.63591e-06)
(-1.02238e-05 3.74326e-08 4.11104e-09 3.02027e-06 -5.56549e-06 7.2035e-06)
(-8.7071e-06 5.65844e-08 1.90153e-09 5.33183e-06 -6.96846e-06 3.37528e-06)
(-4.21468e-06 2.83615e-08 -6.34753e-10 5.54078e-06 -5.01044e-06 -1.32611e-06)
(5.79277e-07 -5.92793e-10 -2.5188e-09 2.88236e-06 -1.19336e-06 -3.46164e-06)
(2.47659e-06 -5.6685e-09 1.94052e-09 -2.62845e-08 9.74473e-07 -2.45031e-06)
(1.65432e-06 -3.23905e-09 3.23905e-09 -8.27162e-07 8.27162e-07 -8.27161e-07)
(4.21325e-07 -9.01069e-10 8.20626e-10 -3.12678e-07 1.89231e-07 -1.08648e-07)
(3.53406e-08 -7.56869e-11 3.93033e-11 -3.1417e-08 1.18157e-08 -3.92355e-09)
(7.80518e-10 -1.32339e-12 6.96329e-14 -7.5426e-10 1.54111e-10 -2.62586e-11)
(1.77784e-12 -1.54813e-15 -1.34412e-15 -1.77429e-12 1.00357e-13 -3.54918e-15)
(6.31091e-06 5.93791e-09 3.00214e-09 2.26247e-11 3.60265e-08 -6.31093e-06)
(5.49557e-06 1.87753e-08 2.53114e-09 3.1229e-10 1.55378e-07 -5.49588e-06)
(4.14165e-06 3.34279e-08 2.12569e-09 9.61721e-10 2.98453e-07 -4.14261e-06)
(2.24009e-06 5.07351e-08 1.92763e-09 1.65499e-09 4.11352e-07 -2.24174e-06)
(-7.03816e-08 7.10668e-08 2.35935e-09 2.22516e-09 5.10959e-07 6.81564e-08)
(-2.65581e-06 9.41573e-08 3.71712e-09 2.47563e-09 5.94393e-07 2.65334e-06)
(-5.3813e-06 1.19229e-07 6.13775e-09 2.25375e-09 6.57093e-07 5.37905e-06)
(-8.118e-06 1.45164e-07 9.57772e-09 1.50043e-09 6.95572e-07 8.1165e-06)
(-1.07506e-05 1.70647e-07 1.38282e-08 2.69779e-10 7.08172e-07 1.07503e-05)
(-1.31867e-05 1.94376e-07 1.85793e-08 -1.28047e-09 6.96774e-07 1.3188e-05)
(-1.53648e-05 2.15227e-07 2.35065e-08 -2.9445e-09 6.67238e-07 1.53677e-05)
(-1.72613e-05 2.32401e-07 2.83575e-08 -4.54508e-09 6.28596e-07 1.72658e-05)
(-1.88838e-05 2.45464e-07 3.2998e-08 -5.99863e-09 5.9234e-07 1.88898e-05)
(-2.02742e-05 2.54358e-07 3.75214e-08 -7.40034e-09 5.78168e-07 2.02816e-05)
(-2.15211e-05 2.595e-07 4.21901e-08 -8.99636e-09 6.00415e-07 2.15301e-05)
(-2.27055e-05 2.6132e-07 4.73213e-08 -1.11603e-08 6.73105e-07 2.27166e-05)
(-2.39344e-05 2.60518e-07 5.33723e-08 -1.43766e-08 8.08536e-07 2.39488e-05)
(-2.52892e-05 2.57548e-07 6.07741e-08 -1.92843e-08 1.01817e-06 2.53085e-05)
(-2.68612e-05 2.52935e-07 7.00195e-08 -2.67369e-08 1.30828e-06 2.68879e-05)
(-2.87027e-05 2.46779e-07 8.15557e-08 -3.81097e-08 1.68673e-06 2.87408e-05)
(-3.09263e-05 2.39605e-07 9.60444e-08 -5.52348e-08 2.14375e-06 3.09816e-05)
(-3.35043e-05 2.30899e-07 1.13554e-07 -8.05826e-08 2.65629e-06 3.35849e-05)
(-3.6364e-05 2.19972e-07 1.34034e-07 -1.17918e-07 3.20796e-06 3.64819e-05)
(-3.94185e-05 2.06167e-07 1.57154e-07 -1.71729e-07 3.76516e-06 3.95902e-05)
(-4.25693e-05 1.88932e-07 1.82394e-07 -2.47191e-07 4.29146e-06 4.28165e-05)
(-4.57511e-05 1.67961e-07 2.09161e-07 -3.48558e-07 4.73095e-06 4.60996e-05)
(-4.89243e-05 1.42884e-07 2.36965e-07 -4.78802e-07 5.03309e-06 4.94031e-05)
(-5.20732e-05 1.12443e-07 2.66474e-07 -6.54224e-07 5.30918e-06 5.27274e-05)
(-5.47871e-05 6.89841e-08 3.00834e-07 -1.02528e-06 6.66872e-06 5.58124e-05)
(-5.60959e-05 1.74786e-08 3.27862e-07 -1.63762e-06 8.66927e-06 5.77335e-05)
(-5.62417e-05 -2.51657e-08 3.4151e-07 -2.31527e-06 9.74168e-06 5.8557e-05)
(-5.55509e-05 -5.99018e-08 3.48629e-07 -3.08394e-06 1.01599e-05 5.86348e-05)
(-5.40006e-05 -9.00594e-08 3.52024e-07 -4.00106e-06 1.02134e-05 5.80017e-05)
(-5.1682e-05 -1.14605e-07 3.50844e-07 -4.96658e-06 9.59112e-06 5.66486e-05)
(-4.88623e-05 -1.31777e-07 3.43568e-07 -5.73629e-06 7.90169e-06 5.45985e-05)
(-4.59223e-05 -1.39074e-07 3.27673e-07 -5.88937e-06 4.81736e-06 5.18117e-05)
(-4.31518e-05 -1.32504e-07 2.99014e-07 -4.82137e-06 2.16118e-07 4.79732e-05)
(-4.05295e-05 -1.06552e-07 2.52433e-07 -1.80378e-06 -5.64262e-06 4.23333e-05)
(-3.82292e-05 -4.64413e-08 1.92715e-07 4.16471e-06 -1.23454e-05 3.40645e-05)
(-3.42151e-05 3.71772e-08 1.38309e-07 1.25749e-05 -1.73605e-05 2.16403e-05)
(-2.14466e-05 4.81698e-08 6.31212e-08 1.54841e-05 -1.3616e-05 5.96253e-06)
(-5.35418e-06 8.61206e-09 5.46705e-09 7.4079e-06 -3.75309e-06 -2.05372e-06)
(2.62946e-06 -1.48904e-09 1.48906e-09 -1.31473e-06 1.31473e-06 -1.31473e-06)
(2.47659e-06 -1.9405e-09 5.6685e-09 -2.45031e-06 9.74471e-07 -2.62834e-08)
(6.9325e-07 -1.31604e-09 1.67792e-09 -7.10222e-07 1.914e-07 1.69722e-08)
(6.43687e-08 -1.60142e-10 8.4239e-11 -6.56327e-08 1.1368e-08 1.26401e-09)
(1.58204e-09 -3.4097e-12 -1.7491e-13 -1.60052e-09 1.3984e-10 1.84848e-11)
(3.86885e-12 -4.39924e-15 -5.85423e-15 -3.87284e-12 1.117e-13 3.98903e-15)
(-2.87578e-05 2.17813e-08 5.5552e-08 1.09941e-10 1.13848e-07 2.87577e-05)
(-2.96434e-05 6.49623e-08 5.92635e-08 9.90455e-10 3.50813e-07 2.96424e-05)
(-3.02268e-05 1.05436e-07 6.21005e-08 2.63275e-09 5.89999e-07 3.02242e-05)
(-3.11538e-05 1.4347e-07 6.66178e-08 4.6009e-09 8.07293e-07 3.11492e-05)
(-3.23986e-05 1.7905e-07 7.27784e-08 6.35304e-09 9.93179e-07 3.23922e-05)
(-3.39399e-05 2.12105e-07 8.05926e-08 7.40364e-09 1.14283e-06 3.39325e-05)
(-3.57451e-05 2.42464e-07 9.00224e-08 7.37396e-09 1.2495e-06 3.57377e-05)
(-3.77711e-05 2.69852e-07 1.00973e-07 6.10503e-09 1.30861e-06 3.7765e-05)
(-3.99656e-05 2.93906e-07 1.13287e-07 3.70109e-09 1.31887e-06 3.99619e-05)
(-4.22754e-05 3.14202e-07 1.26777e-07 5.05031e-10 1.28465e-06 4.22749e-05)
(-4.46546e-05 3.3031e-07 1.41283e-07 -3.02812e-09 1.21691e-06 4.46576e-05)
(-4.70772e-05 3.41832e-07 1.56744e-07 -6.50534e-09 1.13129e-06 4.70837e-05)
(-4.95333e-05 3.48433e-07 1.73198e-07 -9.74068e-09 1.04742e-06 4.9543e-05)
(-5.20417e-05 3.49912e-07 1.90964e-07 -1.29552e-08 9.99028e-07 5.20547e-05)
(-5.46776e-05 3.46243e-07 2.10732e-07 -1.67216e-08 1.01045e-06 5.46943e-05)
(-5.75125e-05 3.37338e-07 2.33263e-07 -2.19346e-08 1.10522e-06 5.75344e-05)
(-6.06694e-05 3.23224e-07 2.59812e-07 -2.97935e-08 1.30365e-06 6.06992e-05)
(-6.4264e-05 3.03677e-07 2.91769e-07 -4.19448e-08 1.62414e-06 6.43059e-05)
(-6.84598e-05 2.78292e-07 3.31153e-07 -6.06274e-08 2.07499e-06 6.85205e-05)
(-7.33812e-05 2.45997e-07 3.80022e-07 -8.93889e-08 2.6655e-06 7.34706e-05)
(-7.91729e-05 2.05394e-07 4.40977e-07 -1.33078e-07 3.37854e-06 7.9306e-05)
(-8.59635e-05 1.54674e-07 5.16976e-07 -1.9815e-07 4.16936e-06 8.61616e-05)
(-9.3896e-05 9.10707e-08 6.11899e-07 -2.9422e-07 4.99884e-06 9.41902e-05)
(-0.000103066 1.05473e-08 7.29744e-07 -4.33309e-07 5.80137e-06 0.000103499)
(-0.000113568 -9.18873e-08 8.75261e-07 -6.30884e-07 6.51035e-06 0.000114198)
(-0.000125563 -2.22587e-07 1.05504e-06 -9.04161e-07 7.03046e-06 0.000126467)
(-0.000139259 -3.89317e-07 1.27784e-06 -1.27349e-06 7.264e-06 0.000140532)
(-0.000154904 -6.00365e-07 1.5556e-06 -1.77077e-06 7.15709e-06 0.000156675)
(-0.000171815 -8.64648e-07 1.88115e-06 -2.46349e-06 6.79305e-06 0.000174278)
(-0.00017958 -1.11212e-06 2.02319e-06 -3.40134e-06 6.45605e-06 0.000182982)
(-0.000182644 -1.34461e-06 2.05484e-06 -4.63435e-06 5.88145e-06 0.000187278)
(-0.000186032 -1.5909e-06 2.08551e-06 -6.25222e-06 4.75299e-06 0.000192284)
(-0.000189987 -1.84976e-06 2.12443e-06 -8.29215e-06 2.7148e-06 0.00019828)
(-0.000194424 -2.11273e-06 2.17655e-06 -1.06105e-05 -9.07241e-07 0.000205034)
(-0.000198984 -2.35727e-06 2.24597e-06 -1.27173e-05 -7.01192e-06 0.000211701)
(-0.000202736 -2.53798e-06 2.32717e-06 -1.353e-05 -1.65181e-05 0.000216266)
(-0.000203944 -2.58099e-06 2.39387e-06 -1.11475e-05 -2.98796e-05 0.000215092)
(-0.000199939 -2.39804e-06 2.39243e-06 -3.19347e-06 -4.59798e-05 0.000203132)
(-0.000189304 -1.96602e-06 2.27429e-06 1.30976e-05 -6.23032e-05 0.000176206)
(-0.000167542 -1.35393e-06 1.89742e-06 3.63155e-05 -7.15977e-05 0.000131227)
(-0.000107737 -5.52397e-07 8.66604e-07 4.32628e-05 -5.2816e-05 6.4474e-05)
(-3.89828e-05 -1.1948e-07 1.1948e-07 1.94914e-05 -1.94914e-05 1.94914e-05)
(-5.35418e-06 -5.467e-09 -8.6121e-09 -2.05371e-06 -3.75309e-06 7.4079e-06)
(5.79273e-07 2.51882e-09 5.92764e-10 -3.46163e-06 -1.19336e-06 2.88236e-06)
(4.98689e-07 -2.72764e-10 1.55045e-09 -8.5465e-07 -1.80559e-07 3.55961e-07)
(7.21333e-08 -1.54203e-10 1.13713e-10 -8.56197e-08 -7.47343e-09 1.34864e-08)
(2.14665e-09 -4.87641e-12 -7.28073e-13 -2.26713e-09 -1.21924e-10 1.20487e-10)
(5.65314e-12 -6.90665e-15 -1.35741e-14 -5.67603e-12 -2.92473e-14 2.28879e-14)
(6.23254e-05 -6.522e-09 2.60857e-07 2.44061e-10 1.35504e-07 -6.23257e-05)
(6.16451e-05 -1.89666e-08 2.55556e-07 1.96702e-09 3.73173e-07 -6.16471e-05)
(6.0722e-05 -3.04202e-08 2.48621e-07 4.97237e-09 6.05301e-07 -6.0727e-05)
(5.93293e-05 -4.07212e-08 2.38287e-07 8.83765e-09 8.57432e-07 -5.93381e-05)
(5.74954e-05 -4.96089e-08 2.24895e-07 1.25136e-08 1.09505e-06 -5.75079e-05)
(5.5241e-05 -5.67084e-08 2.08799e-07 1.5125e-08 1.31445e-06 -5.52561e-05)
(5.25985e-05 -6.16859e-08 1.90483e-07 1.5922e-08 1.50655e-06 -5.26144e-05)
(4.96156e-05 -6.42515e-08 1.70575e-07 1.44835e-08 1.66267e-06 -4.96301e-05)
(4.63532e-05 -6.42599e-08 1.49801e-07 1.08207e-08 1.77651e-06 -4.6364e-05)
(4.28762e-05 -6.17072e-08 1.28897e-07 5.36847e-09 1.84815e-06 -4.28816e-05)
(3.92423e-05 -5.67553e-08 1.08526e-07 -1.20587e-09 1.88646e-06 -3.92411e-05)
(3.54857e-05 -4.96974e-08 8.91739e-08 -8.29772e-09 1.90701e-06 -3.54774e-05)
(3.16238e-05 -4.09471e-08 7.11976e-08 -1.56261e-08 1.93219e-06 -3.16082e-05)
(2.76382e-05 -3.10321e-08 5.48056e-08 -2.36389e-08 2.00726e-06 -2.76146e-05)
(2.34394e-05 -2.05639e-08 3.99068e-08 -3.34704e-08 2.16667e-06 -2.34059e-05)
(1.89409e-05 -1.0399e-08 2.65278e-08 -4.69837e-08 2.44714e-06 -1.88939e-05)
(1.39867e-05 -1.61565e-09 1.46639e-08 -6.6858e-08 2.88432e-06 -1.39199e-05)
(8.42348e-06 4.25682e-09 4.63376e-09 -9.70147e-08 3.51505e-06 -8.32647e-06)
(2.02291e-06 5.08625e-09 -2.88927e-09 -1.42949e-07 4.3619e-06 -1.87996e-06)
(-5.40181e-06 -2.08827e-09 -6.47213e-09 -2.13082e-07 5.44509e-06 5.61489e-06)
(-1.40979e-05 -2.13681e-08 -3.73226e-09 -3.19455e-07 6.75753e-06 1.44174e-05)
(-2.42639e-05 -5.80712e-08 8.95291e-09 -4.78973e-07 8.2648e-06 2.47428e-05)
(-3.61828e-05 -1.19556e-07 3.69483e-08 -7.1602e-07 9.92654e-06 3.68988e-05)
(-5.00756e-05 -2.15179e-07 8.74016e-08 -1.06162e-06 1.16556e-05 5.11372e-05)
(-6.61572e-05 -3.56913e-07 1.69375e-07 -1.55817e-06 1.33714e-05 6.77154e-05)
(-8.47006e-05 -5.60164e-07 2.94809e-07 -2.2579e-06 1.49484e-05 8.69585e-05)
(-0.000105875 -8.42629e-07 4.77585e-07 -3.22634e-06 1.62384e-05 0.000109102)
(-0.000129677 -1.21976e-06 7.33199e-07 -4.54033e-06 1.70418e-05 0.000134218)
(-0.000155833 -1.69291e-06 1.08451e-06 -6.02082e-06 1.59953e-05 0.000161854)
(-0.000182876 -2.27328e-06 1.50363e-06 -7.78188e-06 1.34798e-05 0.000190657)
(-0.000210905 -3.0214e-06 1.96255e-06 -1.04872e-05 1.09591e-05 0.000221392)
(-0.000239897 -3.94665e-06 2.46457e-06 -1.42725e-05 7.37695e-06 0.00025417)
(-0.00026832 -4.99642e-06 2.98771e-06 -1.88899e-05 1.23614e-06 0.00028721)
(-0.000293586 -6.05893e-06 3.47379e-06 -2.37551e-05 -8.60815e-06 0.000317341)
(-0.00031267 -6.95263e-06 3.84752e-06 -2.74401e-05 -2.32168e-05 0.00034011)
(-0.000322997 -7.4601e-06 4.04367e-06 -2.73021e-05 -4.3165e-05 0.000350299)
(-0.000323758 -7.4135e-06 4.05103e-06 -1.94482e-05 -6.79451e-05 0.000343206)
(-0.000316173 -6.77152e-06 3.94592e-06 -2.80971e-08 -9.48508e-05 0.000316201)
(-0.000306516 -5.71687e-06 3.97394e-06 3.59474e-05 -0.000121251 0.000270568)
(-0.000315713 -5.04628e-06 4.63133e-06 9.86488e-05 -0.000149845 0.000217064)
(-0.000255872 -3.27999e-06 3.27999e-06 0.000127936 -0.000127936 0.000127936)
(-0.000107737 -8.66603e-07 5.52396e-07 6.4474e-05 -5.2816e-05 4.32627e-05)
(-2.14466e-05 -6.3121e-08 -4.81699e-08 5.96253e-06 -1.3616e-05 1.54841e-05)
(-4.21468e-06 6.34767e-10 -2.83616e-08 -1.32609e-06 -5.01044e-06 5.54077e-06)
(-6.02346e-07 -1.53434e-10 -2.96538e-09 -1.04336e-07 -9.01997e-07 7.06682e-07)
(7.8171e-09 -2.64806e-11 2.29209e-11 -3.46781e-08 -4.67766e-08 2.6861e-08)
(1.28499e-09 -3.21117e-12 -6.7856e-13 -1.51665e-09 -6.55666e-10 2.31664e-10)
(4.25366e-12 -5.23618e-15 -1.4006e-14 -4.29711e-12 -3.45571e-13 4.34505e-14)