/*--------------------------------*- C++ -*----------------------------------*\
| =========                 |                                                 |
| \\      /  F ield         | OpenFOAM: The Open Source CFD Toolbox           |
|  \\    /   O peration     | Version:  2412                                  |
|   \\  /    A nd           | Website:  www.openfoam.com                      |
|    \\/     M anipulation  |                                                 |
\*---------------------------------------------------------------------------*/
FoamFile
{
    version     2.0;
    format      ascii;
    arch        "LSB;label=32;scalar=64";
    class       volSymmTensorField;
    location    "1830";
    object      Tij6;
}
// * * * * * * * * * * * * * * * * * * * * * * * * * * * * * * * * * * * * * //

dimensions      [0 0 0 0 0 0 0];

internalField   nonuniform List<symmTensor> 
2304
(
(2.36478e-11 -1.62502e-12 -5.73988e-08 2.36528e-11 8.94773e-11 -4.73006e-11)
(2.359e-11 -4.74463e-12 -5.7557e-08 2.36335e-11 2.63746e-10 -4.72236e-11)
(2.34199e-11 -7.52907e-12 -5.78471e-08 2.35314e-11 4.28416e-10 -4.69513e-11)
(2.31539e-11 -9.74632e-12 -5.82391e-08 2.33489e-11 5.82521e-10 -4.65028e-11)
(2.28189e-11 -1.11584e-11 -5.86924e-08 2.30946e-11 7.25014e-10 -4.59135e-11)
(2.24222e-11 -1.16158e-11 -5.91649e-08 2.2758e-11 8.55255e-10 -4.51801e-11)
(2.19857e-11 -1.10228e-11 -5.96141e-08 2.23454e-11 9.72645e-10 -4.43311e-11)
(2.1526e-11 -9.36209e-12 -6.00012e-08 2.18621e-11 1.07697e-09 -4.33881e-11)
(2.10659e-11 -6.70607e-12 -6.02931e-08 2.13258e-11 1.16828e-09 -4.23917e-11)
(2.06225e-11 -3.22035e-12 -6.04659e-08 2.07553e-11 1.24707e-09 -4.13778e-11)
(2.02099e-11 8.57588e-13 -6.05059e-08 2.01726e-11 1.31415e-09 -4.03825e-11)
(1.98332e-11 5.24929e-12 -6.04103e-08 1.9595e-11 1.37062e-09 -3.94282e-11)
(1.94885e-11 9.66937e-12 -6.01858e-08 1.9033e-11 1.41768e-09 -3.85215e-11)
(1.91662e-11 1.3856e-11 -5.98472e-08 1.84917e-11 1.45658e-09 -3.76579e-11)
(1.88298e-11 1.76501e-11 -5.94146e-08 1.79455e-11 1.48832e-09 -3.67753e-11)
(1.84588e-11 2.09977e-11 -5.8908e-08 1.73797e-11 1.51359e-09 -3.58385e-11)
(1.80055e-11 2.3956e-11 -5.83462e-08 1.67469e-11 1.53268e-09 -3.47525e-11)
(1.74429e-11 2.66995e-11 -5.77426e-08 1.60137e-11 1.54544e-09 -3.34566e-11)
(1.67167e-11 2.9528e-11 -5.71045e-08 1.51124e-11 1.5513e-09 -3.1829e-11)
(1.58058e-11 3.28556e-11 -5.64302e-08 1.40017e-11 1.54926e-09 -2.98075e-11)
(1.468e-11 3.72065e-11 -5.57094e-08 1.26256e-11 1.53805e-09 -2.73056e-11)
(1.33363e-11 4.31825e-11 -5.49213e-08 1.0952e-11 1.51626e-09 -2.42883e-11)
(1.17535e-11 5.13898e-11 -5.40371e-08 8.9339e-12 1.48244e-09 -2.06874e-11)
(9.95371e-12 6.24133e-11 -5.30211e-08 6.57483e-12 1.43522e-09 -1.65285e-11)
(7.98908e-12 7.67312e-11 -5.18334e-08 3.9219e-12 1.37374e-09 -1.1911e-11)
(5.94885e-12 9.45974e-11 -5.04339e-08 1.08011e-12 1.29788e-09 -7.02896e-12)
(3.96999e-12 1.15832e-10 -4.87869e-08 -1.76906e-12 1.20861e-09 -2.20094e-12)
(2.13661e-12 1.39721e-10 -4.68696e-08 -4.4701e-12 1.10811e-09 2.3335e-12)
(3.14205e-13 1.65492e-10 -4.46778e-08 -7.08967e-12 9.99396e-10 6.77547e-12)
(-2.29029e-12 1.93676e-10 -4.2218e-08 -1.03873e-11 8.82477e-10 1.26776e-11)
(-5.29393e-12 2.25072e-10 -3.94772e-08 -1.39176e-11 7.56224e-10 1.92116e-11)
(-8.20188e-12 2.5907e-10 -3.64454e-08 -1.70622e-11 6.23111e-10 2.52641e-11)
(-1.07864e-11 2.94216e-10 -3.31308e-08 -1.945e-11 4.87611e-10 3.02363e-11)
(-1.27826e-11 3.28449e-10 -2.95616e-08 -2.06818e-11 3.55221e-10 3.34644e-11)
(-1.38293e-11 3.58731e-10 -2.57906e-08 -2.03073e-11 2.3253e-10 3.41366e-11)
(-1.35498e-11 3.80922e-10 -2.19023e-08 -1.79748e-11 1.26822e-10 3.15246e-11)
(-1.17232e-11 3.90308e-10 -1.80165e-08 -1.3686e-11 4.4898e-11 2.54093e-11)
(-8.49598e-12 3.82874e-10 -1.42822e-08 -8.03857e-12 -8.86672e-12 1.65345e-11)
(-4.52442e-12 3.57053e-10 -1.08584e-08 -2.26365e-12 -3.45625e-11 6.78808e-12)
(-8.55856e-13 3.15074e-10 -7.88282e-09 2.15054e-12 -3.75996e-11 -1.29468e-12)
(1.4179e-12 2.62816e-10 -5.44037e-09 4.10076e-12 -2.76005e-11 -5.51865e-12)
(1.88438e-12 2.07591e-10 -3.54636e-09 3.66146e-12 -1.49618e-11 -5.54584e-12)
(1.28961e-12 1.55209e-10 -2.15618e-09 2.18263e-12 -6.03152e-12 -3.47224e-12)
(5.92612e-13 1.08867e-10 -1.19391e-09 9.24963e-13 -1.72618e-12 -1.51758e-12)
(1.85988e-13 6.99566e-11 -5.7584e-10 2.66818e-13 -2.93869e-13 -4.52806e-13)
(3.45411e-14 3.91083e-11 -2.21061e-10 4.15785e-14 -1.0101e-14 -7.61196e-14)
(2.57214e-15 1.68555e-11 -5.43232e-11 1.07888e-15 3.37177e-15 -3.65102e-15)
(9.37494e-17 4.37201e-12 -4.37201e-12 -4.69228e-17 1.40624e-16 -4.68265e-17)
(-4.06349e-09 -9.98573e-10 -1.14767e-05 -4.06071e-09 1.59857e-08 8.12419e-09)
(-4.2359e-09 -2.91582e-09 -1.1508e-05 -4.21201e-09 4.71272e-08 8.44791e-09)
(-4.39998e-09 -4.62686e-09 -1.15657e-05 -4.33873e-09 7.65649e-08 8.73871e-09)
(-4.6415e-09 -5.98866e-09 -1.16435e-05 -4.53437e-09 1.04149e-07 9.17587e-09)
(-4.93769e-09 -6.85501e-09 -1.17335e-05 -4.78614e-09 1.29709e-07 9.72382e-09)
(-5.26733e-09 -7.13403e-09 -1.18273e-05 -5.0826e-09 1.5313e-07 1.03499e-08)
(-5.60571e-09 -6.7667e-09 -1.19165e-05 -5.40776e-09 1.74301e-07 1.10135e-08)
(-5.92958e-09 -5.74243e-09 -1.19934e-05 -5.74461e-09 1.93165e-07 1.16742e-08)
(-6.2164e-09 -4.10558e-09 -1.20514e-05 -6.07352e-09 2.09709e-07 1.22899e-08)
(-6.44848e-09 -1.95786e-09 -1.20858e-05 -6.37591e-09 2.23989e-07 1.28244e-08)
(-6.61383e-09 5.54828e-10 -1.20938e-05 -6.63549e-09 2.36115e-07 1.32493e-08)
(-6.70857e-09 3.26143e-09 -1.20749e-05 -6.8416e-09 2.46251e-07 1.35502e-08)
(-6.7363e-09 5.98655e-09 -1.20303e-05 -6.98968e-09 2.54582e-07 1.3726e-08)
(-6.70784e-09 8.56914e-09 -1.1963e-05 -7.08221e-09 2.61312e-07 1.379e-08)
(-6.64526e-09 1.09113e-08 -1.18769e-05 -7.13515e-09 2.66611e-07 1.37804e-08)
(-6.56774e-09 1.298e-08 -1.17761e-05 -7.1643e-09 2.70605e-07 1.3732e-08)
(-6.50183e-09 1.481e-08 -1.16641e-05 -7.19605e-09 2.73364e-07 1.36979e-08)
(-6.4677e-09 1.65089e-08 -1.15438e-05 -7.25399e-09 2.74892e-07 1.37217e-08)
(-6.49013e-09 1.82605e-08 -1.14166e-05 -7.3703e-09 2.75127e-07 1.38604e-08)
(-6.58155e-09 2.03189e-08 -1.12822e-05 -7.56836e-09 2.73945e-07 1.41499e-08)
(-6.75215e-09 2.30061e-08 -1.11383e-05 -7.87244e-09 2.71172e-07 1.46246e-08)
(-6.99848e-09 2.66922e-08 -1.09804e-05 -8.29472e-09 2.66591e-07 1.52932e-08)
(-7.31622e-09 3.17509e-08 -1.08034e-05 -8.8448e-09 2.60018e-07 1.6161e-08)
(-7.68382e-09 3.85419e-08 -1.06002e-05 -9.51138e-09 2.51273e-07 1.71952e-08)
(-8.06592e-09 4.73607e-08 -1.0363e-05 -1.02624e-08 2.40245e-07 1.83283e-08)
(-8.41288e-09 5.83689e-08 -1.00839e-05 -1.10408e-08 2.26924e-07 1.94537e-08)
(-8.66132e-09 7.14645e-08 -9.7558e-06 -1.17606e-08 2.11437e-07 2.04219e-08)
(-8.77188e-09 8.62129e-08 -9.37388e-06 -1.23443e-08 1.94077e-07 2.11162e-08)
(-8.81711e-09 1.02129e-07 -8.93711e-06 -1.28277e-08 1.75304e-07 2.16448e-08)
(-9.06258e-09 1.19539e-07 -8.44702e-06 -1.34642e-08 1.55295e-07 2.25268e-08)
(-9.39053e-09 1.38943e-07 -7.90101e-06 -1.41168e-08 1.34092e-07 2.35073e-08)
(-9.62202e-09 1.5997e-07 -7.29713e-06 -1.45546e-08 1.12132e-07 2.41766e-08)
(-9.67836e-09 1.81743e-07 -6.63716e-06 -1.46362e-08 9.00653e-08 2.43146e-08)
(-9.47841e-09 2.0303e-07 -5.92664e-06 -1.42208e-08 6.86495e-08 2.36992e-08)
(-8.91335e-09 2.21997e-07 -5.17576e-06 -1.31529e-08 4.87584e-08 2.20663e-08)
(-7.88078e-09 2.36118e-07 -4.40074e-06 -1.1321e-08 3.13335e-08 1.92018e-08)
(-6.34847e-09 2.42463e-07 -3.62473e-06 -8.75244e-09 1.72519e-08 1.51009e-08)
(-4.42429e-09 2.38457e-07 -2.87681e-06 -5.70404e-09 7.11651e-09 1.01283e-08)
(-2.39085e-09 2.22965e-07 -2.18864e-06 -2.67634e-09 1.02128e-09 5.06718e-09)
(-6.46185e-10 1.97204e-07 -1.58856e-06 -2.82739e-10 -1.56162e-09 9.28924e-10)
(4.28329e-10 1.64724e-07 -1.09469e-06 9.98056e-10 -1.75355e-09 -1.42639e-09)
(7.1555e-10 1.30397e-07 -7.12772e-07 1.16636e-09 -9.94502e-10 -1.88191e-09)
(5.27346e-10 9.80222e-08 -4.33964e-07 7.6462e-10 -3.19763e-10 -1.29197e-09)
(2.60173e-10 6.95977e-08 -2.42005e-07 3.40654e-10 -1.61177e-11 -6.00826e-10)
(9.13213e-11 4.57694e-08 -1.18674e-07 1.00042e-10 4.32059e-11 -1.91363e-10)
(2.06797e-11 2.56123e-08 -4.52384e-08 1.2845e-11 2.22634e-11 -3.35247e-11)
(1.57791e-12 6.64004e-09 -6.64003e-09 -7.88985e-13 2.36687e-12 -7.88927e-13)
(2.57234e-15 5.43232e-11 -1.68555e-11 -3.65169e-15 3.37145e-15 1.07936e-15)
(-1.99673e-07 -4.12538e-08 -0.0002745 -1.99573e-07 3.3332e-07 3.99246e-07)
(-2.03757e-07 -1.20417e-07 -0.000275172 -2.02898e-07 9.8206e-07 4.06655e-07)
(-2.08231e-07 -1.90944e-07 -0.000276404 -2.06028e-07 1.59485e-06 4.14259e-07)
(-2.14892e-07 -2.46915e-07 -0.000278063 -2.11039e-07 2.16954e-06 4.25931e-07)
(-2.23219e-07 -2.82324e-07 -0.000279976 -2.17769e-07 2.70271e-06 4.40988e-07)
(-2.32714e-07 -2.93435e-07 -0.000281964 -2.26071e-07 3.19208e-06 4.58785e-07)
(-2.42806e-07 -2.77897e-07 -0.000283847 -2.35688e-07 3.63545e-06 4.78493e-07)
(-2.52938e-07 -2.35346e-07 -0.000285461 -2.46291e-07 4.03146e-06 4.9923e-07)
(-2.6256e-07 -1.67654e-07 -0.000286669 -2.57438e-07 4.37955e-06 5.19998e-07)
(-2.71214e-07 -7.9009e-08 -0.000287372 -2.68641e-07 4.68034e-06 5.39855e-07)
(-2.78573e-07 2.4629e-08 -0.000287512 -2.79419e-07 4.93548e-06 5.57992e-07)
(-2.84506e-07 1.36307e-07 -0.000287077 -2.89394e-07 5.14758e-06 5.739e-07)
(-2.89065e-07 2.48904e-07 -0.000286094 -2.98322e-07 5.31981e-06 5.87387e-07)
(-2.92509e-07 3.55881e-07 -0.000284622 -3.06154e-07 5.45575e-06 5.98663e-07)
(-2.95428e-07 4.53267e-07 -0.000282741 -3.13252e-07 5.55859e-06 6.0868e-07)
(-2.98349e-07 5.39727e-07 -0.000280532 -3.2002e-07 5.63094e-06 6.18369e-07)
(-3.02034e-07 6.16702e-07 -0.000278069 -3.27209e-07 5.67453e-06 6.29243e-07)
(-3.07097e-07 6.88603e-07 -0.000275403 -3.35557e-07 5.69012e-06 6.42654e-07)
(-3.14295e-07 7.62995e-07 -0.000272561 -3.46089e-07 5.67745e-06 6.60384e-07)
(-3.24054e-07 8.50282e-07 -0.000269532 -3.5962e-07 5.63538e-06 6.83674e-07)
(-3.36655e-07 9.6387e-07 -0.000266288 -3.76936e-07 5.56226e-06 7.13592e-07)
(-3.52087e-07 1.11939e-06 -0.000262778 -3.98591e-07 5.45609e-06 7.50679e-07)
(-3.70225e-07 1.33224e-06 -0.000258836 -4.24953e-07 5.31349e-06 7.95177e-07)
(-3.90366e-07 1.61758e-06 -0.000254311 -4.55706e-07 5.13232e-06 8.46072e-07)
(-4.11344e-07 1.9882e-06 -0.00024903 -4.89848e-07 4.91129e-06 9.01192e-07)
(-4.31504e-07 2.45188e-06 -0.000242818 -5.25554e-07 4.65007e-06 9.57057e-07)
(-4.48631e-07 3.00628e-06 -0.000235507 -5.59913e-07 4.34957e-06 1.00854e-06)
(-4.60865e-07 3.63558e-06 -0.000226972 -5.89811e-07 4.01304e-06 1.05068e-06)
(-4.69234e-07 4.32102e-06 -0.000217162 -6.15061e-07 3.64903e-06 1.08429e-06)
(-4.80484e-07 5.07689e-06 -0.000206094 -6.42312e-07 3.26497e-06 1.1228e-06)
(-4.9083e-07 5.92539e-06 -0.000193691 -6.6772e-07 2.86598e-06 1.15855e-06)
(-4.94602e-07 6.85363e-06 -0.000179892 -6.84497e-07 2.46034e-06 1.1791e-06)
(-4.88997e-07 7.82888e-06 -0.000164712 -6.88285e-07 2.05689e-06 1.17728e-06)
(-4.71048e-07 8.80394e-06 -0.000148247 -6.74394e-07 1.66409e-06 1.14544e-06)
(-4.37086e-07 9.70531e-06 -0.000130682 -6.37164e-07 1.29096e-06 1.07425e-06)
(-3.84048e-07 1.04267e-05 -0.000112338 -5.7145e-07 9.47412e-07 9.55499e-07)
(-3.11637e-07 1.08371e-05 -9.36961e-05 -4.75413e-07 6.44464e-07 7.8705e-07)
(-2.24538e-07 1.08095e-05 -7.53989e-05 -3.53979e-07 3.93878e-07 5.78517e-07)
(-1.33391e-07 1.02671e-05 -5.8202e-05 -2.21364e-07 2.06292e-07 3.54754e-07)
(-5.26202e-08 9.23233e-06 -4.28643e-05 -1.00348e-07 8.86549e-08 1.52968e-07)
(2.6057e-09 7.85698e-06 -3.00197e-05 -1.69732e-08 3.58643e-08 1.43675e-08)
(2.40445e-08 6.33798e-06 -1.98634e-05 1.69057e-08 2.15561e-08 -4.09502e-08)
(2.14562e-08 4.85003e-06 -1.22739e-05 1.69992e-08 1.74768e-08 -3.84554e-08)
(1.17802e-08 3.46298e-06 -6.86038e-06 7.49413e-09 1.20833e-08 -1.92743e-08)
(4.29727e-09 2.09522e-06 -3.0845e-06 1.09243e-09 5.64907e-09 -5.3897e-09)
(7.29599e-10 7.04692e-07 -7.04692e-07 -3.648e-10 1.0944e-09 -3.64799e-10)
(2.06798e-11 4.52384e-08 -2.56122e-08 -3.35249e-11 2.22634e-11 1.28451e-11)
(3.45418e-14 2.21061e-10 -3.91082e-11 -7.61214e-14 -1.0102e-14 4.15796e-14)
(4.13344e-06 -3.92898e-07 -0.00176584 4.13424e-06 1.79965e-06 -8.26769e-06)
(4.15346e-06 -1.14577e-06 -0.0017691 4.16033e-06 5.30124e-06 -8.31379e-06)
(4.14756e-06 -1.81391e-06 -0.00177505 4.16516e-06 8.60594e-06 -8.31271e-06)
(4.13642e-06 -2.34109e-06 -0.00178303 4.16718e-06 1.17051e-05 -8.30361e-06)
(4.11879e-06 -2.67105e-06 -0.00179222 4.16229e-06 1.45837e-05 -8.28108e-06)
(4.09284e-06 -2.76972e-06 -0.00180174 4.14585e-06 1.72315e-05 -8.23869e-06)
(4.05729e-06 -2.61661e-06 -0.00181075 4.11407e-06 1.96384e-05 -8.17137e-06)
(4.01134e-06 -2.20983e-06 -0.00181849 4.06433e-06 2.17976e-05 -8.07567e-06)
(3.95494e-06 -1.568e-06 -0.00182433 3.99569e-06 2.37049e-05 -7.95063e-06)
(3.88848e-06 -7.3045e-07 -0.0018278 3.90876e-06 2.53608e-05 -7.79724e-06)
(3.81264e-06 2.47756e-07 -0.00182865 3.80538e-06 2.677e-05 -7.61802e-06)
(3.72779e-06 1.3031e-06 -0.00182682 3.68793e-06 2.79413e-05 -7.41573e-06)
(3.63403e-06 2.37081e-06 -0.00182242 3.55889e-06 2.88863e-05 -7.19293e-06)
(3.53065e-06 3.39162e-06 -0.0018157 3.42003e-06 2.96193e-05 -6.95068e-06)
(3.41502e-06 4.32973e-06 -0.00180701 3.27057e-06 3.01545e-05 -6.68559e-06)
(3.2848e-06 5.17374e-06 -0.00179668 3.10919e-06 3.05051e-05 -6.39399e-06)
(3.13574e-06 5.93804e-06 -0.00178502 2.93171e-06 3.06825e-05 -6.06745e-06)
(2.964e-06 6.66511e-06 -0.00177224 2.73324e-06 3.06956e-05 -5.69725e-06)
(2.76411e-06 7.42761e-06 -0.00175842 2.50616e-06 3.05509e-05 -5.27028e-06)
(2.53221e-06 8.32598e-06 -0.00174347 2.24341e-06 3.02543e-05 -4.77562e-06)
(2.26508e-06 9.49027e-06 -0.00172732 1.93772e-06 2.98093e-05 -4.2028e-06)
(1.96054e-06 1.10713e-05 -0.00170972 1.58241e-06 2.92152e-05 -3.54295e-06)
(1.61542e-06 1.32209e-05 -0.00168979 1.17025e-06 2.84665e-05 -2.78567e-06)
(1.23075e-06 1.60933e-05 -0.00166674 6.98756e-07 2.75642e-05 -1.92951e-06)
(8.10561e-07 1.98253e-05 -0.0016397 1.69802e-07 2.6509e-05 -9.80363e-07)
(3.62068e-07 2.45161e-05 -0.00160773 -4.09391e-07 2.52985e-05 4.73231e-08)
(-1.02311e-07 3.01857e-05 -0.00156989 -1.02275e-06 2.39237e-05 1.12506e-06)
(-5.66567e-07 3.67428e-05 -0.0015253 -1.64613e-06 2.2375e-05 2.2127e-06)
(-1.01905e-06 4.40646e-05 -0.00147333 -2.25975e-06 2.06781e-05 3.2788e-06)
(-1.47312e-06 5.23147e-05 -0.00141364 -2.88056e-06 1.89086e-05 4.35368e-06)
(-1.91008e-06 6.17433e-05 -0.00134554 -3.49944e-06 1.71508e-05 5.40952e-06)
(-2.30193e-06 7.23076e-05 -0.00126838 -4.09087e-06 1.54432e-05 6.39281e-06)
(-2.6265e-06 8.37954e-05 -0.00118182 -4.63138e-06 1.37883e-05 7.25788e-06)
(-2.85298e-06 9.58546e-05 -0.00108579 -5.0849e-06 1.21653e-05 7.93787e-06)
(-2.94235e-06 0.000107852 -0.000980635 -5.39559e-06 1.05331e-05 8.33793e-06)
(-2.85794e-06 0.000118755 -0.00086731 -5.48816e-06 8.83801e-06 8.3461e-06)
(-2.57953e-06 0.000127125 -0.000747672 -5.27469e-06 7.03872e-06 7.85422e-06)
(-2.11601e-06 0.000131287 -0.000624672 -4.67564e-06 5.15334e-06 6.79165e-06)
(-1.51103e-06 0.000129727 -0.000502436 -3.66465e-06 3.30719e-06 5.17569e-06)
(-8.29813e-07 0.000121686 -0.000386105 -2.34845e-06 1.77762e-06 3.17826e-06)
(-2.00793e-07 0.000107839 -0.000281387 -1.07817e-06 8.61122e-07 1.27896e-06)
(1.66228e-07 8.97741e-05 -0.000191911 -2.79926e-07 4.89174e-07 1.13697e-07)
(2.31083e-07 6.87621e-05 -0.000118521 -1.28618e-08 3.40576e-07 -2.18222e-07)
(1.40442e-07 4.4542e-05 -6.00097e-05 -8.53042e-09 2.01429e-07 -1.31912e-07)
(4.2502e-08 1.88118e-05 -1.88118e-05 -2.1251e-08 6.3753e-08 -2.1251e-08)
(4.29726e-09 3.0845e-06 -2.09522e-06 -5.3897e-09 5.64906e-09 1.09243e-09)
(9.13214e-11 1.18674e-07 -4.57693e-08 -1.91364e-10 4.32057e-11 1.00042e-10)
(1.85989e-13 5.7584e-10 -6.99565e-11 -4.52809e-13 -2.93871e-13 2.6682e-13)
(1.94569e-05 -1.41447e-06 -0.0045248 1.94592e-05 3.67258e-06 -3.8916e-05)
(1.94618e-05 -4.11987e-06 -0.00453003 1.94815e-05 1.08408e-05 -3.89433e-05)
(1.92915e-05 -6.50819e-06 -0.00453956 1.93421e-05 1.7615e-05 -3.86335e-05)
(1.90536e-05 -8.37884e-06 -0.00455233 1.9142e-05 2.39623e-05 -3.81956e-05)
(1.87622e-05 -9.53549e-06 -0.00456701 1.88872e-05 2.9872e-05 -3.76495e-05)
(1.84297e-05 -9.86284e-06 -0.00458226 1.85821e-05 3.53247e-05 -3.70118e-05)
(1.80694e-05 -9.29629e-06 -0.0045968 1.82326e-05 4.02999e-05 -3.63021e-05)
(1.76948e-05 -7.83643e-06 -0.00460949 1.78472e-05 4.47784e-05 -3.55419e-05)
(1.73186e-05 -5.55386e-06 -0.00461942 1.74359e-05 4.87449e-05 -3.47545e-05)
(1.69516e-05 -2.58771e-06 -0.00462591 1.701e-05 5.21898e-05 -3.39616e-05)
(1.6601e-05 8.72247e-07 -0.00462861 1.65802e-05 5.51108e-05 -3.31813e-05)
(1.62691e-05 4.61068e-06 -0.00462742 1.61546e-05 5.75129e-05 -3.24237e-05)
(1.59539e-05 8.41053e-06 -0.00462248 1.57379e-05 5.94078e-05 -3.16918e-05)
(1.56483e-05 1.20757e-05 -0.00461412 1.53303e-05 6.08152e-05 -3.09786e-05)
(1.53377e-05 1.54909e-05 -0.00460275 1.49225e-05 6.17591e-05 -3.02602e-05)
(1.50087e-05 1.86257e-05 -0.0045888 1.4504e-05 6.22674e-05 -2.95127e-05)
(1.46431e-05 2.15402e-05 -0.00457261 1.40564e-05 6.23698e-05 -2.86995e-05)
(1.42261e-05 2.43949e-05 -0.00455436 1.35621e-05 6.20984e-05 -2.77882e-05)
(1.37408e-05 2.74594e-05 -0.00453405 1.29975e-05 6.14857e-05 -2.67383e-05)
(1.31758e-05 3.11094e-05 -0.00451143 1.23423e-05 6.057e-05 -2.55181e-05)
(1.25115e-05 3.58184e-05 -0.00448647 1.15656e-05 5.93864e-05 -2.40771e-05)
(1.17501e-05 4.21285e-05 -0.0044586 1.06578e-05 5.79593e-05 -2.24079e-05)
(1.08963e-05 5.06129e-05 -0.0044263 9.61258e-06 5.63133e-05 -2.05089e-05)
(9.95983e-06 6.18683e-05 -0.00438825 8.42927e-06 5.44817e-05 -1.83891e-05)
(8.9549e-06 7.64502e-05 -0.00434294 7.11463e-06 5.24924e-05 -1.60695e-05)
(7.89661e-06 9.48255e-05 -0.00428876 5.68053e-06 5.03534e-05 -1.35771e-05)
(6.80649e-06 0.000117266 -0.00422392 4.15331e-06 4.80324e-05 -1.09598e-05)
(5.71441e-06 0.000143781 -0.00414653 2.58107e-06 4.54263e-05 -8.29548e-06)
(4.63684e-06 0.000174348 -0.0040545 1.01242e-06 4.23666e-05 -5.64926e-06)
(3.14589e-06 0.000209687 -0.00394521 -1.00238e-06 3.91669e-05 -2.14351e-06)
(1.53337e-06 0.000250834 -0.00381697 -3.26863e-06 3.65317e-05 1.73526e-06)
(6.14725e-08 0.000298168 -0.00366821 -5.5976e-06 3.45899e-05 5.53613e-06)
(-1.21334e-06 0.000351643 -0.00349717 -7.99678e-06 3.32094e-05 9.21012e-06)
(-2.22105e-06 0.000410796 -0.00330221 -1.04672e-05 3.22182e-05 1.26883e-05)
(-2.90848e-06 0.000474221 -0.00308196 -1.29865e-05 3.13036e-05 1.5895e-05)
(-3.28049e-06 0.000538997 -0.00283558 -1.54661e-05 2.9961e-05 1.87466e-05)
(-3.42019e-06 0.000600213 -0.0025628 -1.7655e-05 2.75223e-05 2.10752e-05)
(-3.44977e-06 0.000650735 -0.00226415 -1.90031e-05 2.33356e-05 2.24528e-05)
(-3.4075e-06 0.000681348 -0.00194113 -1.85426e-05 1.71087e-05 2.19501e-05)
(-2.90223e-06 0.000681252 -0.00159663 -1.51408e-05 9.87241e-06 1.8043e-05)
(-1.4049e-06 0.000640003 -0.0012367 -9.15218e-06 4.38974e-06 1.05571e-05)
(1.93079e-07 0.000548997 -0.000870448 -3.56279e-06 1.97579e-06 3.36971e-06)
(8.25529e-07 0.000401073 -0.000513107 -8.1798e-07 1.3769e-06 -7.54945e-09)
(5.51441e-07 0.000211233 -0.000211233 -2.7572e-07 8.27162e-07 -2.75721e-07)
(1.40442e-07 6.00097e-05 -4.4542e-05 -1.31911e-07 2.01429e-07 -8.53053e-09)
(1.17802e-08 6.86038e-06 -3.46298e-06 -1.92743e-08 1.20833e-08 7.49413e-09)
(2.60173e-10 2.42004e-07 -6.95976e-08 -6.00826e-10 -1.61179e-11 3.40654e-10)
(5.92615e-13 1.19391e-09 -1.08867e-10 -1.51758e-12 -1.72618e-12 9.24965e-13)
(2.10363e-06 -2.87629e-06 -0.00668046 2.10713e-06 4.06511e-06 -4.21077e-06)
(1.83183e-06 -8.36964e-06 -0.00668532 1.86196e-06 1.2029e-05 -3.69379e-06)
(1.38048e-06 -1.31938e-05 -0.00669424 1.45763e-06 1.95708e-05 -2.83811e-06)
(7.46556e-07 -1.69452e-05 -0.00670618 8.81151e-07 2.66319e-05 -1.62771e-06)
(-2.36836e-08 -1.92416e-05 -0.00671999 1.66503e-07 3.32124e-05 -1.4282e-07)
(-8.85593e-07 -1.98617e-05 -0.00673453 -6.53936e-07 3.92798e-05 1.53953e-06)
(-1.7942e-06 -1.86909e-05 -0.00674876 -1.54612e-06 4.47965e-05 3.34032e-06)
(-2.70654e-06 -1.57436e-05 -0.00676178 -2.47507e-06 4.97214e-05 5.18161e-06)
(-3.58419e-06 -1.11699e-05 -0.00677287 -3.40606e-06 5.40176e-05 6.99025e-06)
(-4.39632e-06 -5.24766e-06 -0.00678155 -4.30712e-06 5.76548e-05 8.70344e-06)
(-5.12244e-06 1.65382e-06 -0.00678756 -5.15199e-06 6.06143e-05 1.02744e-05)
(-5.75468e-06 9.12361e-06 -0.00679081 -5.92371e-06 6.28886e-05 1.16784e-05)
(-6.29556e-06 1.67552e-05 -0.00679138 -6.61386e-06 6.44817e-05 1.29094e-05)
(-6.75904e-06 2.41913e-05 -0.00678945 -7.22545e-06 6.54121e-05 1.39845e-05)
(-7.17468e-06 3.12335e-05 -0.00678524 -7.78007e-06 6.57056e-05 1.49547e-05)
(-7.56945e-06 3.78523e-05 -0.00677891 -8.30053e-06 6.53979e-05 1.587e-05)
(-7.97903e-06 4.41998e-05 -0.00677053 -8.82262e-06 6.45289e-05 1.68016e-05)
(-8.43057e-06 5.06288e-05 -0.00676003 -9.37787e-06 6.31438e-05 1.78084e-05)
(-8.95448e-06 5.77124e-05 -0.00674713 -1.00049e-05 6.1285e-05 1.89594e-05)
(-9.56824e-06 6.62366e-05 -0.0067314 -1.07322e-05 5.89958e-05 2.03004e-05)
(-1.03094e-05 7.71645e-05 -0.00671296 -1.16084e-05 5.63226e-05 2.19178e-05)
(-1.11686e-05 9.15876e-05 -0.00669087 -1.26345e-05 5.33072e-05 2.3803e-05)
(-1.21217e-05 0.000110693 -0.00666367 -1.37928e-05 4.99841e-05 2.59145e-05)
(-1.31398e-05 0.000135727 -0.00663011 -1.50559e-05 4.63786e-05 2.81957e-05)
(-1.419e-05 0.000167884 -0.00658883 -1.63855e-05 4.25158e-05 3.05755e-05)
(-1.52505e-05 0.000208244 -0.00653838 -1.77453e-05 3.83993e-05 3.29958e-05)
(-1.63082e-05 0.000257653 -0.00647714 -1.9094e-05 3.39902e-05 3.54022e-05)
(-1.73578e-05 0.000316721 -0.00640325 -2.03741e-05 2.91302e-05 3.77318e-05)
(-1.82624e-05 0.000386486 -0.00631453 -2.13284e-05 2.32781e-05 3.95908e-05)
(-1.86986e-05 0.000468639 -0.00620834 -2.16557e-05 1.73593e-05 4.03543e-05)
(-1.87472e-05 0.000565033 -0.0060822 -2.1655e-05 1.29032e-05 4.04023e-05)
(-1.8517e-05 0.000677443 -0.00593405 -2.15783e-05 1.00623e-05 4.00953e-05)
(-1.80002e-05 0.000807364 -0.00576196 -2.15557e-05 8.65461e-06 3.95559e-05)
(-1.72273e-05 0.000955765 -0.00556407 -2.18392e-05 8.58905e-06 3.90665e-05)
(-1.62874e-05 0.00112246 -0.00533856 -2.27936e-05 9.65149e-06 3.9081e-05)
(-1.53074e-05 0.00130515 -0.00508291 -2.48105e-05 1.13897e-05 4.01179e-05)
(-1.43839e-05 0.00149806 -0.00479238 -2.81069e-05 1.30621e-05 4.24907e-05)
(-1.35096e-05 0.00168993 -0.00445753 -3.23597e-05 1.36058e-05 4.58693e-05)
(-1.27426e-05 0.00186024 -0.00406053 -3.57844e-05 1.11137e-05 4.8527e-05)
(-1.14044e-05 0.00197045 -0.0035686 -3.37854e-05 4.64134e-06 4.51898e-05)
(-7.14846e-06 0.00194917 -0.00292832 -2.27599e-05 -6.07154e-07 2.99083e-05)
(-1.78467e-06 0.00169809 -0.00210106 -8.11771e-06 -8.04956e-07 9.90238e-06)
(8.76485e-07 0.00116081 -0.00116081 -4.38234e-07 1.31473e-06 -4.38251e-07)
(8.25528e-07 0.000513107 -0.000401073 -7.54531e-09 1.3769e-06 -8.17983e-07)
(2.31083e-07 0.000118521 -6.8762e-05 -2.18221e-07 3.40576e-07 -1.28621e-08)
(2.14562e-08 1.22739e-05 -4.85002e-06 -3.84554e-08 1.74768e-08 1.69991e-08)
(5.27346e-10 4.33964e-07 -9.80221e-08 -1.29197e-09 -3.19763e-10 7.6462e-10)
(1.28962e-12 2.15618e-09 -1.55209e-10 -3.47225e-12 -6.03152e-12 2.18263e-12)
(-9.58595e-06 -4.34188e-06 -0.00744745 -9.58236e-06 3.0898e-06 1.91683e-05)
(-9.88117e-06 -1.26245e-05 -0.00744743 -9.85038e-06 9.10783e-06 1.97316e-05)
(-1.00757e-05 -1.98464e-05 -0.00744741 -9.99718e-06 1.47717e-05 2.00729e-05)
(-1.03848e-05 -2.5397e-05 -0.00744739 -1.02483e-05 2.00599e-05 2.06331e-05)
(-1.07998e-05 -2.87401e-05 -0.00744737 -1.06078e-05 2.49397e-05 2.14076e-05)
(-1.13136e-05 -2.95734e-05 -0.00744735 -1.1081e-05 2.93661e-05 2.23946e-05)
(-1.19155e-05 -2.77619e-05 -0.00744734 -1.16678e-05 3.32894e-05 2.35833e-05)
(-1.25909e-05 -2.33604e-05 -0.00744735 -1.23613e-05 3.66553e-05 2.49522e-05)
(-1.33225e-05 -1.66131e-05 -0.00744735 -1.31469e-05 3.94145e-05 2.64693e-05)
(-1.40925e-05 -7.93464e-06 -0.00744735 -1.40041e-05 4.1525e-05 2.80965e-05)
(-1.48856e-05 2.14626e-06 -0.00744734 -1.49104e-05 4.29574e-05 2.97959e-05)
(-1.56932e-05 1.30596e-05 -0.00744731 -1.58466e-05 4.36938e-05 3.15397e-05)
(-1.65118e-05 2.42599e-05 -0.00744727 -1.67973e-05 4.37277e-05 3.33091e-05)
(-1.7348e-05 3.52903e-05 -0.00744721 -1.77573e-05 4.30688e-05 3.51053e-05)
(-1.82265e-05 4.59251e-05 -0.00744714 -1.87433e-05 4.1731e-05 3.69699e-05)
(-1.91714e-05 5.61878e-05 -0.00744705 -1.97744e-05 3.97371e-05 3.89458e-05)
(-2.02236e-05 6.63671e-05 -0.00744695 -2.089e-05 3.71097e-05 4.11136e-05)
(-2.14217e-05 7.70433e-05 -0.00744681 -2.21296e-05 3.38724e-05 4.35513e-05)
(-2.28203e-05 8.91117e-05 -0.00744663 -2.35489e-05 3.00324e-05 4.63692e-05)
(-2.44606e-05 0.000103756 -0.00744638 -2.51879e-05 2.55835e-05 4.96485e-05)
(-2.63911e-05 0.000122423 -0.00744601 -2.70874e-05 2.05205e-05 5.34785e-05)
(-2.86545e-05 0.000146778 -0.00744545 -2.92733e-05 1.48404e-05 5.79278e-05)
(-3.12987e-05 0.000178647 -0.0074446 -3.17609e-05 8.50015e-06 6.30596e-05)
(-3.43553e-05 0.00022 -0.00744328 -3.45292e-05 1.41547e-06 6.88845e-05)
(-3.78559e-05 0.000272831 -0.00744126 -3.75317e-05 -6.4996e-06 7.53876e-05)
(-4.18546e-05 0.00033913 -0.00743817 -4.07143e-05 -1.53445e-05 8.25689e-05)
(-4.64201e-05 0.000420815 -0.00743354 -4.40069e-05 -2.51927e-05 9.04271e-05)
(-5.16356e-05 0.000519762 -0.00742666 -4.73362e-05 -3.59942e-05 9.89718e-05)
(-5.72731e-05 0.000638368 -0.00741668 -5.02744e-05 -4.77612e-05 0.000107547)
(-5.98621e-05 0.000774624 -0.00734558 -4.92605e-05 -5.91925e-05 0.000109123)
(-6.08838e-05 0.00093256 -0.00723535 -4.55704e-05 -7.02096e-05 0.000106454)
(-6.20138e-05 0.00111737 -0.00711035 -4.06795e-05 -8.08467e-05 0.000102693)
(-6.33329e-05 0.00133219 -0.0069711 -3.463e-05 -9.05397e-05 9.79629e-05)
(-6.4812e-05 0.00158033 -0.00681862 -2.75822e-05 -9.8569e-05 9.23942e-05)
(-6.6332e-05 0.00186452 -0.00665329 -2.00756e-05 -0.000103968 8.64076e-05)
(-6.75823e-05 0.00218576 -0.00647267 -1.31771e-05 -0.000105638 8.07594e-05)
(-6.79842e-05 0.00254092 -0.00626764 -8.54132e-06 -0.000102636 7.65255e-05)
(-6.66475e-05 0.00291775 -0.00601662 -8.2713e-06 -9.45343e-05 7.49188e-05)
(-6.31016e-05 0.00328523 -0.00567769 -1.29903e-05 -8.35802e-05 7.6092e-05)
(-5.58474e-05 0.00357515 -0.00517903 -1.51396e-05 -7.32631e-05 7.0987e-05)
(-3.59122e-05 0.00362927 -0.0043919 -7.17786e-06 -5.00282e-05 4.30901e-05)
(-1.29943e-05 0.00317974 -0.00317974 6.49718e-06 -1.94914e-05 6.4971e-06)
(-1.78467e-06 0.00210106 -0.00169809 9.90241e-06 -8.04944e-07 -8.11774e-06)
(1.93078e-07 0.000870448 -0.000548996 3.36972e-06 1.97579e-06 -3.5628e-06)
(1.66228e-07 0.000191911 -8.9774e-05 1.13698e-07 4.89174e-07 -2.79926e-07)
(2.40444e-08 1.98634e-05 -6.33797e-06 -4.09501e-08 2.15561e-08 1.69056e-08)
(7.15549e-10 7.12771e-07 -1.30397e-07 -1.88191e-09 -9.94501e-10 1.16636e-09)
(1.88438e-12 3.54636e-09 -2.07591e-10 -5.54585e-12 -1.49618e-11 3.66146e-12)
(2.07751e-05 -5.70433e-06 -0.00744701 2.07777e-05 1.62755e-06 -4.15528e-05)
(2.05484e-05 -1.65834e-05 -0.00744701 2.05698e-05 4.75374e-06 -4.11182e-05)
(2.02407e-05 -2.603e-05 -0.00744701 2.0295e-05 7.6594e-06 -4.05356e-05)
(1.97764e-05 -3.32453e-05 -0.00744701 1.98702e-05 1.03684e-05 -3.96466e-05)
(1.91651e-05 -3.75669e-05 -0.00744703 1.92959e-05 1.28194e-05 -3.84611e-05)
(1.84137e-05 -3.86166e-05 -0.00744707 1.85702e-05 1.4956e-05 -3.69839e-05)
(1.75328e-05 -3.62379e-05 -0.00744714 1.76967e-05 1.67148e-05 -3.52296e-05)
(1.65385e-05 -3.05185e-05 -0.00744722 1.66871e-05 1.80248e-05 -3.32256e-05)
(1.54511e-05 -2.17844e-05 -0.00744731 1.55616e-05 1.88202e-05 -3.10127e-05)
(1.42921e-05 -1.05679e-05 -0.0074474 1.43462e-05 1.90411e-05 -2.86383e-05)
(1.30808e-05 2.46689e-06 -0.00744746 1.30684e-05 1.86402e-05 -2.61492e-05)
(1.18286e-05 1.66213e-05 -0.0074475 1.17503e-05 1.75798e-05 -2.35789e-05)
(1.05413e-05 3.12483e-05 -0.0074475 1.0409e-05 1.5831e-05 -2.09503e-05)
(9.21275e-06 4.58354e-05 -0.00744747 9.04908e-06 1.33805e-05 -1.82618e-05)
(7.81313e-06 6.01703e-05 -0.00744741 7.64961e-06 1.02139e-05 -1.54627e-05)
(6.31364e-06 7.43646e-05 -0.00744732 6.18926e-06 6.32235e-06 -1.25029e-05)
(4.66224e-06 8.88708e-05 -0.00744719 4.62385e-06 1.69169e-06 -9.2861e-06)
(2.80783e-06 0.000104505 -0.00744701 2.91321e-06 -3.69483e-06 -5.72104e-06)
(6.74314e-07 0.000122461 -0.00744675 9.99777e-07 -9.87648e-06 -1.67409e-06)
(-1.80058e-06 0.000144262 -0.00744636 -1.14772e-06 -1.68961e-05 2.9483e-06)
(-4.69927e-06 0.00017176 -0.00744575 -3.56175e-06 -2.4807e-05 8.26102e-06)
(-8.08789e-06 0.000207064 -0.00744479 -6.23261e-06 -3.36677e-05 1.43205e-05)
(-1.20608e-05 0.000252432 -0.00744327 -9.14464e-06 -4.35643e-05 2.12055e-05)
(-1.66917e-05 0.000310266 -0.0074409 -1.22174e-05 -5.46136e-05 2.89092e-05)
(-2.20523e-05 0.00038298 -0.00743721 -1.53214e-05 -6.69013e-05 3.73737e-05)
(-2.82334e-05 0.000472978 -0.0074316 -1.82958e-05 -8.04755e-05 4.65292e-05)
(-3.52918e-05 0.000582603 -0.00742319 -2.09106e-05 -9.52434e-05 5.62024e-05)
(-4.3226e-05 0.000714154 -0.00741085 -2.29139e-05 -0.000110707 6.614e-05)
(-5.19449e-05 0.000869964 -0.00739303 -2.41229e-05 -0.000125809 7.60678e-05)
(-6.09601e-05 0.00105399 -0.0073677 -2.35271e-05 -0.000141311 8.44872e-05)
(-7.03049e-05 0.00127086 -0.00733195 -2.01782e-05 -0.000158626 9.04831e-05)
(-7.99711e-05 0.00152373 -0.00728197 -1.37284e-05 -0.000176578 9.36995e-05)
(-8.94481e-05 0.00181497 -0.00721309 -3.99889e-06 -0.000192956 9.3447e-05)
(-9.78731e-05 0.00214594 -0.00711977 8.81526e-06 -0.000205332 8.90578e-05)
(-0.000104236 0.00251611 -0.00699576 2.35974e-05 -0.00021115 8.06389e-05)
(-0.000107679 0.00292262 -0.00683444 3.80486e-05 -0.000208483 6.963e-05)
(-0.00010793 0.00336016 -0.00662928 4.89066e-05 -0.000197172 5.90237e-05)
(-0.000105398 0.00382118 -0.00637413 5.22453e-05 -0.000179104 5.31527e-05)
(-0.000102175 0.00429576 -0.00606388 4.43705e-05 -0.000160141 5.7804e-05)
(-0.000105238 0.00477525 -0.00569313 3.77921e-05 -0.00015769 6.74461e-05)
(-8.52906e-05 0.00499013 -0.00499013 4.26454e-05 -0.000127936 4.26452e-05)
(-3.59122e-05 0.0043919 -0.00362927 4.30902e-05 -5.00281e-05 -7.17798e-06)
(-7.14845e-06 0.00292832 -0.00194917 2.99084e-05 -6.07117e-07 -2.27599e-05)
(-1.4049e-06 0.0012367 -0.000640002 1.05571e-05 4.38974e-06 -9.15218e-06)
(-2.00794e-07 0.000281387 -0.000107839 1.27897e-06 8.61122e-07 -1.07817e-06)
(2.60566e-09 3.00197e-05 -7.85697e-06 1.43676e-08 3.58643e-08 -1.69732e-08)
(4.28329e-10 1.09469e-06 -1.64723e-07 -1.42638e-09 -1.75354e-09 9.98054e-10)
(1.4179e-12 5.44036e-09 -2.62816e-10 -5.51866e-12 -2.76004e-11 4.10076e-12)