/*--------------------------------*- C++ -*----------------------------------*\
| =========                 |                                                 |
| \\      /  F ield         | OpenFOAM: The Open Source CFD Toolbox           |
|  \\    /   O peration     | Version:  2412                                  |
|   \\  /    A nd           | Website:  www.openfoam.com                      |
|    \\/     M anipulation  |                                                 |
\*---------------------------------------------------------------------------*/
FoamFile
{
    version     2.0;
    format      ascii;
    arch        "LSB;label=32;scalar=64";
    class       volSymmTensorField;
    location    "1830";
    object      Tij7;
}
// * * * * * * * * * * * * * * * * * * * * * * * * * * * * * * * * * * * * * //

dimensions      [0 0 0 0 0 0 0];

internalField   nonuniform List<symmTensor> 
2304
(
(-1.75736e-10 2.73973e-13 -1.0861e-13 -4.26989e-16 5.09064e-15 1.75736e-10)
(-1.76381e-10 8.08253e-13 -1.08503e-13 -3.7026e-15 1.48806e-14 1.76384e-10)
(-1.77565e-10 1.31503e-12 -1.08006e-13 -9.73599e-15 2.3665e-14 1.77575e-10)
(-1.79169e-10 1.79206e-12 -1.0715e-13 -1.79193e-14 3.07374e-14 1.79187e-10)
(-1.81027e-10 2.23615e-12 -1.06002e-13 -2.76158e-14 3.53537e-14 1.81055e-10)
(-1.82969e-10 2.64486e-12 -1.04537e-13 -3.82251e-14 3.70263e-14 1.83008e-10)
(-1.8482e-10 3.01542e-12 -1.02807e-13 -4.91916e-14 3.54247e-14 1.8487e-10)
(-1.86419e-10 3.34598e-12 -1.00849e-13 -6.00517e-14 3.04644e-14 1.86479e-10)
(-1.87626e-10 3.63549e-12 -9.87453e-14 -7.044e-14 2.23506e-14 1.87696e-10)
(-1.8834e-10 3.8843e-12 -9.65685e-14 -8.01091e-14 1.15967e-14 1.8842e-10)
(-1.88503e-10 4.09407e-12 -9.43953e-14 -8.89184e-14 -1.04124e-15 1.88592e-10)
(-1.88103e-10 4.26768e-12 -9.22723e-14 -9.68232e-14 -1.4667e-14 1.882e-10)
(-1.8717e-10 4.40864e-12 -9.0211e-14 -1.03837e-13 -2.83597e-14 1.87273e-10)
(-1.85765e-10 4.52104e-12 -8.81999e-14 -1.1002e-13 -4.1277e-14 1.85875e-10)
(-1.83974e-10 4.60834e-12 -8.60986e-14 -1.15417e-13 -5.29101e-14 1.84089e-10)
(-1.81883e-10 4.67314e-12 -8.38332e-14 -1.20044e-13 -6.30873e-14 1.82004e-10)
(-1.79573e-10 4.71689e-12 -8.1196e-14 -1.2387e-13 -7.19915e-14 1.79696e-10)
(-1.77098e-10 4.73963e-12 -7.80636e-14 -1.26807e-13 -8.01657e-14 1.77225e-10)
(-1.74493e-10 4.73994e-12 -7.41769e-14 -1.28709e-13 -8.85328e-14 1.74621e-10)
(-1.7175e-10 4.71488e-12 -6.94189e-14 -1.29374e-13 -9.83443e-14 1.71879e-10)
(-1.68831e-10 4.66066e-12 -6.36222e-14 -1.28584e-13 -1.11161e-13 1.68959e-10)
(-1.65654e-10 4.57276e-12 -5.67408e-14 -1.26126e-13 -1.2873e-13 1.6578e-10)
(-1.62108e-10 4.44652e-12 -4.86556e-14 -1.21819e-13 -1.52752e-13 1.6223e-10)
(-1.58058e-10 4.27761e-12 -3.94636e-14 -1.15549e-13 -1.8477e-13 1.58173e-10)
(-1.53357e-10 4.06346e-12 -2.94263e-14 -1.07334e-13 -2.25884e-13 1.53464e-10)
(-1.47863e-10 3.80408e-12 -1.90092e-14 -9.73497e-14 -2.76374e-13 1.4796e-10)
(-1.41462e-10 3.50335e-12 -8.93008e-15 -8.5967e-14 -3.35075e-13 1.41548e-10)
(-1.34102e-10 3.16929e-12 2.98013e-16 -7.37143e-14 -3.9915e-13 1.34175e-10)
(-1.25809e-10 2.81272e-12 9.1115e-15 -6.1164e-14 -4.65549e-13 1.2587e-10)
(-1.16662e-10 2.43665e-12 2.06914e-14 -4.84453e-14 -5.34885e-13 1.16711e-10)
(-1.06678e-10 2.04135e-12 3.3116e-14 -3.56052e-14 -6.08035e-13 1.06714e-10)
(-9.59002e-11 1.63731e-12 4.40286e-14 -2.31212e-14 -6.81622e-13 9.59233e-11)
(-8.44548e-11 1.24063e-12 5.22745e-14 -1.15798e-14 -7.49957e-13 8.44664e-11)
(-7.25509e-11 8.6954e-13 5.67273e-14 -1.48197e-15 -8.06034e-13 7.25524e-11)
(-6.04854e-11 5.43398e-13 5.62129e-14 6.80399e-15 -8.41186e-13 6.04786e-11)
(-4.86474e-11 2.80298e-13 5.002e-14 1.30852e-14 -8.45827e-13 4.86344e-11)
(-3.74989e-11 9.28013e-14 3.86113e-14 1.7357e-14 -8.11991e-13 3.74816e-11)
(-2.75165e-11 -1.69718e-14 2.40978e-14 1.9751e-14 -7.37126e-13 2.74967e-11)
(-1.90982e-11 -6.01253e-14 9.95961e-15 2.04415e-14 -6.27334e-13 1.90777e-11)
(-1.2465e-11 -5.86454e-14 -3.13946e-16 1.96078e-14 -4.97455e-13 1.24454e-11)
(-7.60617e-12 -3.80508e-14 -4.81176e-15 1.75184e-14 -3.66611e-13 7.58865e-12)
(-4.30218e-12 -1.79773e-14 -4.48136e-15 1.46149e-14 -2.50986e-13 4.28757e-12)
(-2.21853e-12 -6.21125e-15 -2.43748e-15 1.14182e-14 -1.58877e-13 2.20711e-12)
(-1.01084e-12 -1.49137e-15 -8.88609e-16 8.33325e-15 -9.14146e-14 1.00251e-12)
(-3.83973e-13 -2.09685e-16 -2.115e-16 5.58446e-15 -4.5969e-14 3.78389e-13)
(-1.08292e-13 -7.75792e-18 -2.67536e-17 3.28643e-15 -1.85767e-14 1.05006e-13)
(-1.73613e-14 9.72262e-19 -9.31386e-19 1.52467e-15 -4.91383e-15 1.58367e-14)
(-9.00711e-16 1.44902e-20 -1.44808e-20 4.50355e-16 -4.50355e-16 4.50355e-16)
(-2.05468e-07 2.86092e-10 1.09098e-10 -3.96826e-13 1.75643e-11 2.05468e-07)
(-2.06216e-07 8.44213e-10 1.13641e-10 -3.44306e-12 5.13165e-11 2.0622e-07)
(-2.07592e-07 1.37382e-09 1.17908e-10 -9.05917e-12 8.15311e-11 2.07601e-07)
(-2.09454e-07 1.87291e-09 1.24272e-10 -1.66928e-11 1.05664e-10 2.09471e-07)
(-2.11613e-07 2.33852e-09 1.32198e-10 -2.5772e-11 1.21051e-10 2.11638e-07)
(-2.13868e-07 2.7681e-09 1.41185e-10 -3.57513e-11 1.25947e-10 2.13904e-07)
(-2.16019e-07 3.15871e-09 1.50615e-10 -4.61197e-11 1.19173e-10 2.16065e-07)
(-2.17876e-07 3.5081e-09 1.59877e-10 -5.64364e-11 1.00432e-10 2.17932e-07)
(-2.19279e-07 3.81474e-09 1.68341e-10 -6.63394e-11 7.04646e-11 2.19345e-07)
(-2.20111e-07 4.07843e-09 1.75478e-10 -7.5564e-11 3.11148e-11 2.20186e-07)
(-2.20303e-07 4.30027e-09 1.8089e-10 -8.394e-11 -1.49059e-11 2.20387e-07)
(-2.1984e-07 4.48262e-09 1.84394e-10 -9.13856e-11 -6.4386e-11 2.19932e-07)
(-2.18757e-07 4.62866e-09 1.86015e-10 -9.78821e-11 -1.14025e-10 2.18854e-07)
(-2.17124e-07 4.74217e-09 1.85989e-10 -1.0346e-10 -1.60805e-10 2.17228e-07)
(-2.15042e-07 4.82665e-09 1.84887e-10 -1.08152e-10 -2.02904e-10 2.1515e-07)
(-2.12608e-07 4.88491e-09 1.83224e-10 -1.11975e-10 -2.39712e-10 2.1272e-07)
(-2.09917e-07 4.91877e-09 1.81741e-10 -1.14916e-10 -2.71886e-10 2.10032e-07)
(-2.07034e-07 4.92879e-09 1.81023e-10 -1.16912e-10 -3.01379e-10 2.07151e-07)
(-2.03996e-07 4.91427e-09 1.81797e-10 -1.1786e-10 -3.315e-10 2.04114e-07)
(-2.008e-07 4.87316e-09 1.84474e-10 -1.17613e-10 -3.66731e-10 2.00917e-07)
(-1.97394e-07 4.80239e-09 1.89409e-10 -1.15994e-10 -4.1267e-10 1.9751e-07)
(-1.93672e-07 4.69782e-09 1.96584e-10 -1.1281e-10 -4.75585e-10 1.93784e-07)
(-1.8952e-07 4.55607e-09 2.05925e-10 -1.07894e-10 -5.61602e-10 1.89628e-07)
(-1.84784e-07 4.37382e-09 2.16847e-10 -1.01092e-10 -6.76266e-10 1.84885e-07)
(-1.79295e-07 4.14924e-09 2.28326e-10 -9.22891e-11 -8.23572e-10 1.79387e-07)
(-1.72889e-07 3.88264e-09 2.38875e-10 -8.14214e-11 -1.00463e-09 1.7297e-07)
(-1.65433e-07 3.57718e-09 2.46563e-10 -6.85019e-11 -1.21544e-09 1.65502e-07)
(-1.5686e-07 3.23897e-09 2.50019e-10 -5.36527e-11 -1.44588e-09 1.56914e-07)
(-1.47198e-07 2.87631e-09 2.50752e-10 -3.7036e-11 -1.68485e-09 1.47235e-07)
(-1.36544e-07 2.49582e-09 2.55111e-10 -1.83483e-11 -1.93451e-09 1.36562e-07)
(-1.24915e-07 2.10337e-09 2.59733e-10 3.11238e-12 -2.1982e-09 1.24912e-07)
(-1.12365e-07 1.70911e-09 2.59757e-10 2.78707e-11 -2.46388e-09 1.12338e-07)
(-9.90432e-08 1.32647e-09 2.52994e-10 5.63171e-11 -2.71138e-09 9.89869e-08)
(-8.51902e-08 9.70726e-10 2.37644e-10 8.86625e-11 -2.9159e-09 8.51015e-08)
(-7.11446e-08 6.57657e-10 2.12004e-10 1.24435e-10 -3.04651e-09 7.10202e-08)
(-5.73478e-08 4.01328e-10 1.75587e-10 1.617e-10 -3.06843e-09 5.71861e-08)
(-4.43247e-08 2.10838e-10 1.30554e-10 1.9637e-10 -2.95186e-09 4.41284e-08)
(-3.26227e-08 8.69634e-11 8.24653e-11 2.22344e-10 -2.68566e-09 3.24004e-08)
(-2.27098e-08 2.06276e-11 3.93133e-11 2.3324e-10 -2.28977e-09 2.24765e-08)
(-1.48624e-08 -4.89191e-12 8.46118e-12 2.25564e-10 -1.81702e-09 1.46369e-08)
(-9.08923e-09 -8.54195e-12 -6.62e-12 2.0124e-10 -1.33743e-09 8.88799e-09)
(-5.16562e-09 -5.16578e-12 -8.72368e-12 1.67279e-10 -9.14418e-10 4.99834e-09)
(-2.69569e-09 -1.95245e-12 -5.35464e-12 1.30855e-10 -5.79335e-10 2.56483e-09)
(-1.2621e-09 -4.27215e-13 -2.15815e-12 9.64103e-11 -3.3524e-10 1.16569e-09)
(-5.07707e-10 -7.51476e-15 -5.8893e-13 6.57397e-11 -1.70455e-10 4.41968e-10)
(-1.53993e-10 2.50463e-14 -9.14114e-14 3.73792e-11 -6.60222e-11 1.16614e-10)
(-1.57243e-11 2.80252e-15 -2.80246e-15 7.86214e-12 -7.86214e-12 7.86213e-12)
(-1.73613e-14 9.31519e-19 -9.72126e-19 1.58367e-14 -4.91383e-15 1.52467e-15)
(-1.41594e-05 1.71548e-08 1.54469e-08 -2.04686e-11 2.09349e-09 1.41595e-05)
(-1.42056e-05 5.062e-08 1.5756e-08 -1.77698e-10 6.11459e-09 1.42058e-05)
(-1.42904e-05 8.23544e-08 1.60914e-08 -4.67882e-10 9.70722e-09 1.42908e-05)
(-1.44047e-05 1.12249e-07 1.65979e-08 -8.63518e-10 1.25682e-08 1.44056e-05)
(-1.45369e-05 1.40157e-07 1.72425e-08 -1.33675e-09 1.43827e-08 1.45382e-05)
(-1.46745e-05 1.65932e-07 1.79929e-08 -1.86064e-09 1.49471e-08 1.46763e-05)
(-1.48051e-05 1.89413e-07 1.88096e-08 -2.40935e-09 1.41268e-08 1.48075e-05)
(-1.49173e-05 2.10464e-07 1.96513e-08 -2.95945e-09 1.18913e-08 1.49203e-05)
(-1.50014e-05 2.28988e-07 2.04737e-08 -3.4904e-09 8.33116e-09 1.50049e-05)
(-1.50503e-05 2.44951e-07 2.12366e-08 -3.98564e-09 3.66453e-09 1.50542e-05)
(-1.50599e-05 2.58387e-07 2.19075e-08 -4.43309e-09 -1.79088e-09 1.50643e-05)
(-1.50294e-05 2.69398e-07 2.24679e-08 -4.82538e-09 -7.6608e-09 1.50342e-05)
(-1.49607e-05 2.78134e-07 2.29139e-08 -5.15925e-09 -1.3561e-08 1.49659e-05)
(-1.48581e-05 2.84781e-07 2.32587e-08 -5.43483e-09 -1.91397e-08 1.48635e-05)
(-1.47272e-05 2.89525e-07 2.35441e-08 -5.65363e-09 -2.41843e-08 1.47329e-05)
(-1.45739e-05 2.92524e-07 2.38102e-08 -5.81712e-09 -2.86236e-08 1.45797e-05)
(-1.44035e-05 2.93896e-07 2.41173e-08 -5.92554e-09 -3.25342e-08 1.44094e-05)
(-1.42196e-05 2.93703e-07 2.4517e-08 -5.97708e-09 -3.61463e-08 1.42256e-05)
(-1.40243e-05 2.91952e-07 2.50737e-08 -5.96752e-09 -3.98503e-08 1.40302e-05)
(-1.38169e-05 2.88599e-07 2.58276e-08 -5.89033e-09 -4.41748e-08 1.38228e-05)
(-1.35957e-05 2.83567e-07 2.68089e-08 -5.73621e-09 -4.97917e-08 1.36014e-05)
(-1.33573e-05 2.76763e-07 2.80251e-08 -5.49235e-09 -5.74702e-08 1.33628e-05)
(-1.30909e-05 2.67994e-07 2.94676e-08 -5.14008e-09 -6.7938e-08 1.30961e-05)
(-1.27868e-05 2.57155e-07 3.10795e-08 -4.65553e-09 -8.18759e-08 1.27915e-05)
(-1.24343e-05 2.442e-07 3.27608e-08 -4.00547e-09 -9.97974e-08 1.24383e-05)
(-1.20229e-05 2.29153e-07 3.43656e-08 -3.14518e-09 -1.21902e-07 1.2026e-05)
(-1.15432e-05 2.12106e-07 3.56955e-08 -2.02167e-09 -1.47816e-07 1.15452e-05)
(-1.09896e-05 1.932e-07 3.65703e-08 -5.84322e-10 -1.76446e-07 1.09902e-05)
(-1.0362e-05 1.72681e-07 3.70246e-08 1.21439e-09 -2.06524e-07 1.03608e-05)
(-9.66536e-06 1.51176e-07 3.75285e-08 3.48569e-09 -2.38337e-07 9.66188e-06)
(-8.89977e-06 1.29434e-07 3.77925e-08 6.42412e-09 -2.72348e-07 8.89334e-06)
(-8.06739e-06 1.07974e-07 3.73884e-08 1.02298e-08 -3.07206e-07 8.05716e-06)
(-7.1767e-06 8.73062e-08 3.61118e-08 1.50935e-08 -3.40591e-07 7.16161e-06)
(-6.24175e-06 6.80334e-08 3.3792e-08 2.11713e-08 -3.69576e-07 6.22058e-06)
(-5.28274e-06 5.0772e-08 3.02757e-08 2.84651e-08 -3.90332e-07 5.25427e-06)
(-4.32681e-06 3.60457e-08 2.55347e-08 3.66323e-08 -3.98274e-07 4.29018e-06)
(-3.40768e-06 2.41796e-08 1.97985e-08 4.47949e-08 -3.89013e-07 3.36288e-06)
(-2.56268e-06 1.52162e-08 1.36293e-08 5.15078e-08 -3.60047e-07 2.51117e-06)
(-1.82715e-06 8.89993e-09 7.8515e-09 5.50922e-08 -3.12616e-07 1.77206e-06)
(-1.22718e-06 4.7752e-09 3.28828e-09 5.43858e-08 -2.52611e-07 1.1728e-06)
(-7.7395e-07 2.31197e-09 5.04336e-10 4.96115e-08 -1.89581e-07 7.24338e-07)
(-4.55476e-07 9.80618e-10 -5.14135e-10 4.20863e-08 -1.31904e-07 4.1339e-07)
(-2.47538e-07 3.67846e-10 -5.03735e-10 3.34312e-08 -8.46042e-08 2.14107e-07)
(-1.20366e-07 1.31017e-10 -2.43893e-10 2.44418e-08 -4.84207e-08 9.59244e-08)
(-4.58935e-08 4.10282e-11 -6.80377e-11 1.449e-08 -2.13316e-08 3.14036e-08)
(-7.90089e-09 6.13511e-12 -6.1351e-12 3.95045e-09 -3.95045e-09 3.95044e-09)
(-1.53993e-10 9.14118e-14 -2.50458e-14 1.16613e-10 -6.60221e-11 3.73791e-11)
(-1.08292e-13 2.67542e-17 7.75845e-18 1.05006e-13 -1.85767e-14 3.28642e-15)
(-0.000169405 1.72056e-07 -5.94847e-07 -1.66461e-10 3.80731e-08 0.000169405)
(-0.000169821 5.07584e-07 -5.98385e-07 -1.44673e-09 1.11126e-07 0.000169823)
(-0.000170582 8.25212e-07 -5.98719e-07 -3.81603e-09 1.76191e-07 0.000170586)
(-0.000171605 1.12396e-06 -5.98639e-07 -7.0692e-09 2.27905e-07 0.000171612)
(-0.000172783 1.40273e-06 -5.97727e-07 -1.10089e-08 2.60797e-07 0.000172794)
(-0.000174007 1.66037e-06 -5.95482e-07 -1.54374e-08 2.71445e-07 0.000174023)
(-0.000175167 1.89557e-06 -5.91496e-07 -2.01525e-08 2.577e-07 0.000175187)
(-0.000176165 2.1072e-06 -5.85474e-07 -2.49497e-08 2.19212e-07 0.000176189)
(-0.000176917 2.29436e-06 -5.773e-07 -2.96272e-08 1.57681e-07 0.000176947)
(-0.000177364 2.45663e-06 -5.66999e-07 -3.39993e-08 7.68997e-08 0.000177398)
(-0.000177473 2.59405e-06 -5.54708e-07 -3.79123e-08 -1.77247e-08 0.000177511)
(-0.000177235 2.70717e-06 -5.40592e-07 -4.12578e-08 -1.19899e-07 0.000177276)
(-0.000176665 2.79694e-06 -5.24812e-07 -4.39776e-08 -2.23187e-07 0.000176709)
(-0.000175797 2.86465e-06 -5.07433e-07 -4.60608e-08 -3.21708e-07 0.000175843)
(-0.000174675 2.9117e-06 -4.88218e-07 -4.75259e-08 -4.11909e-07 0.000174723)
(-0.000173345 2.93946e-06 -4.66937e-07 -4.84003e-08 -4.92647e-07 0.000173394)
(-0.000171847 2.94915e-06 -4.43033e-07 -4.87023e-08 -5.65309e-07 0.000171896)
(-0.000170208 2.94169e-06 -4.15952e-07 -4.84263e-08 -6.33987e-07 0.000170257)
(-0.000168441 2.91781e-06 -3.84852e-07 -4.75324e-08 -7.05626e-07 0.000168488)
(-0.000166535 2.87816e-06 -3.49071e-07 -4.5941e-08 -7.89733e-07 0.000166581)
(-0.000164482 2.82325e-06 -3.08021e-07 -4.34947e-08 -8.98508e-07 0.000164526)
(-0.000162254 2.75302e-06 -2.61247e-07 -3.99141e-08 -1.04589e-06 0.000162294)
(-0.000159739 2.66682e-06 -2.08179e-07 -3.4759e-08 -1.24548e-06 0.000159774)
(-0.000156844 2.56501e-06 -1.48931e-07 -2.73546e-08 -1.5106e-06 0.000156872)
(-0.000153467 2.44806e-06 -8.41621e-08 -1.66661e-08 -1.85222e-06 0.000153483)
(-0.0001495 2.31639e-06 -1.5138e-08 -1.20933e-09 -2.27681e-06 0.000149501)
(-0.000144841 2.16971e-06 5.59246e-08 2.09198e-08 -2.78231e-06 0.00014482)
(-0.000139403 2.0058e-06 1.26037e-07 5.18359e-08 -3.35519e-06 0.000139351)
(-0.000133135 1.82176e-06 1.92661e-07 9.38586e-08 -3.978e-06 0.000133041)
(-0.000126033 1.62763e-06 2.57285e-07 1.51096e-07 -4.65802e-06 0.000125881)
(-0.000118061 1.43966e-06 3.17503e-07 2.30194e-07 -5.40692e-06 0.000117831)
(-0.000109206 1.26207e-06 3.69282e-07 3.38766e-07 -6.20659e-06 0.000108867)
(-9.95013e-05 1.0951e-06 4.09388e-07 4.85181e-07 -7.02127e-06 9.90161e-05)
(-8.90336e-05 9.40262e-07 4.33954e-07 6.78013e-07 -7.80106e-06 8.83555e-05)
(-7.79473e-05 7.9839e-07 4.38657e-07 9.22761e-07 -8.47251e-06 7.70245e-05)
(-6.6464e-05 6.68279e-07 4.20049e-07 1.21575e-06 -8.93547e-06 6.52483e-05)
(-5.48918e-05 5.46472e-07 3.77015e-07 1.53625e-06 -9.07358e-06 5.33555e-05)
(-4.36203e-05 4.28618e-07 3.11743e-07 1.84057e-06 -8.7825e-06 4.17798e-05)
(-3.3095e-05 3.12611e-07 2.30025e-07 2.06518e-06 -8.01323e-06 3.10298e-05)
(-2.37681e-05 2.03091e-07 1.40636e-07 2.14577e-06 -6.81558e-06 2.16223e-05)
(-1.60345e-05 1.12034e-07 6.00998e-08 2.05281e-06 -5.35889e-06 1.39817e-05)
(-1.00248e-05 4.97852e-08 1.02635e-08 1.79972e-06 -3.84777e-06 8.22512e-06)
(-5.6068e-06 1.77553e-08 -6.09669e-09 1.41195e-06 -2.43374e-06 4.19485e-06)
(-2.4985e-06 5.32859e-09 -4.81582e-09 8.87533e-07 -1.19574e-06 1.61097e-06)
(-6.30353e-07 1.06813e-09 -1.06813e-09 3.15177e-07 -3.15177e-07 3.15177e-07)
(-4.58935e-08 6.80376e-11 -4.10281e-11 3.14035e-08 -2.13316e-08 1.44899e-08)
(-5.07707e-10 5.8893e-13 7.51557e-15 4.41967e-10 -1.70455e-10 6.57396e-11)
(-3.83973e-13 2.11502e-16 2.09686e-16 3.78388e-13 -4.5969e-14 5.58445e-15)
(-0.000594003 4.81383e-07 -3.83152e-06 -3.32599e-10 1.87947e-07 0.000594003)
(-0.000594919 1.41963e-06 -3.83511e-06 -2.9e-09 5.47746e-07 0.000594922)
(-0.000596587 2.30636e-06 -3.80623e-06 -7.70117e-09 8.66136e-07 0.000596595)
(-0.000598823 3.1397e-06 -3.76534e-06 -1.4452e-08 1.11685e-06 0.000598838)
(-0.000601397 3.91768e-06 -3.71422e-06 -2.29244e-08 1.27387e-06 0.00060142)
(-0.000604073 4.63744e-06 -3.65438e-06 -3.28316e-08 1.32162e-06 0.000604106)
(-0.000606627 5.29583e-06 -3.58763e-06 -4.378e-08 1.25109e-06 0.00060667)
(-0.000608857 5.88967e-06 -3.51597e-06 -5.52376e-08 1.06189e-06 0.000608912)
(-0.000610601 6.41622e-06 -3.44158e-06 -6.65566e-08 7.63058e-07 0.000610667)
(-0.000611742 6.87341e-06 -3.36651e-06 -7.70446e-08 3.72933e-07 0.000611819)
(-0.000612215 7.26018e-06 -3.29238e-06 -8.60732e-08 -8.3206e-08 0.000612301)
(-0.000612003 7.5765e-06 -3.22006e-06 -9.31752e-08 -5.76522e-07 0.000612096)
(-0.000611131 7.82333e-06 -3.14971e-06 -9.81038e-08 -1.07788e-06 0.00061123)
(-0.000609657 8.00242e-06 -3.08051e-06 -1.00835e-07 -1.56098e-06 0.000609758)
(-0.000607656 8.11648e-06 -3.01008e-06 -1.01494e-07 -2.0103e-06 0.000607758)
(-0.000605203 8.16872e-06 -2.93608e-06 -1.00249e-07 -2.42166e-06 0.000605303)
(-0.000602359 8.16263e-06 -2.85504e-06 -9.72097e-08 -2.80294e-06 0.000602457)
(-0.00059916 8.10186e-06 -2.76396e-06 -9.23319e-08 -3.17517e-06 0.000599252)
(-0.000595603 7.99035e-06 -2.65916e-06 -8.53267e-08 -3.57361e-06 0.000595689)
(-0.00059165 7.83315e-06 -2.53789e-06 -7.55656e-08 -4.04712e-06 0.000591726)
(-0.000587297 7.63503e-06 -2.39573e-06 -6.1838e-08 -4.65705e-06 0.000587359)
(-0.00058245 7.39889e-06 -2.2325e-06 -4.2035e-08 -5.47282e-06 0.000582492)
(-0.000576849 7.12806e-06 -2.04848e-06 -1.27578e-08 -6.56645e-06 0.000576862)
(-0.000570273 6.8285e-06 -1.84513e-06 3.14078e-08 -8.01137e-06 0.000570242)
(-0.00056248 6.50586e-06 -1.62508e-06 9.87396e-08 -9.87307e-06 0.000562382)
(-0.000553211 6.16466e-06 -1.39147e-06 2.01224e-07 -1.22021e-05 0.00055301)
(-0.000542192 5.80381e-06 -1.14929e-06 3.54874e-07 -1.50192e-05 0.000541838)
(-0.000529141 5.40506e-06 -9.06274e-07 5.79451e-07 -1.83063e-05 0.000528561)
(-0.000513765 4.9209e-06 -6.69599e-07 9.00073e-07 -2.20342e-05 0.000512865)
(-0.000495707 4.39864e-06 -3.59e-07 1.35603e-06 -2.6258e-05 0.000494351)
(-0.000474812 3.96258e-06 -2.55959e-08 2.00696e-06 -3.10568e-05 0.000472805)
(-0.000450986 3.63131e-06 2.83945e-07 2.92887e-06 -3.64083e-05 0.000448057)
(-0.00042415 3.38986e-06 5.61703e-07 4.21578e-06 -4.2215e-05 0.000419934)
(-0.000394309 3.2378e-06 8.00717e-07 5.97937e-06 -4.83004e-05 0.000388329)
(-0.000361572 3.16672e-06 9.99221e-07 8.33097e-06 -5.43472e-05 0.000353241)
(-0.000326171 3.1446e-06 1.16391e-06 1.13394e-05 -5.98409e-05 0.000314832)
(-0.00028844 3.10694e-06 1.30523e-06 1.49601e-05 -6.40495e-05 0.00027348)
(-0.000248781 2.95859e-06 1.4191e-06 1.89427e-05 -6.60624e-05 0.000229839)
(-0.00020765 2.59563e-06 1.45805e-06 2.27423e-05 -6.4914e-05 0.000184908)
(-0.000165569 1.97222e-06 1.29308e-06 2.54769e-05 -5.97872e-05 0.000140092)
(-0.000123409 1.19535e-06 8.28931e-07 2.60594e-05 -5.0388e-05 9.73497e-05)
(-8.24634e-05 5.10951e-07 2.94818e-07 2.34662e-05 -3.72127e-05 5.89972e-05)
(-4.4805e-05 1.42799e-07 3.48909e-09 1.69928e-05 -2.17398e-05 2.78122e-05)
(-1.58499e-05 3.1033e-08 -3.10331e-08 7.92496e-06 -7.92496e-06 7.92495e-06)
(-2.4985e-06 4.81581e-09 -5.32859e-09 1.61097e-06 -1.19574e-06 8.87531e-07)
(-1.20366e-07 2.43892e-10 -1.31017e-10 9.59243e-08 -4.84206e-08 2.44418e-08)
(-1.2621e-09 2.15815e-12 4.27215e-13 1.16569e-09 -3.3524e-10 9.64101e-11)
(-1.01084e-12 8.88611e-16 1.49137e-15 1.00251e-12 -9.14144e-14 8.33323e-15)
(-0.000998615 6.02084e-07 -4.71946e-07 -1.79121e-10 4.28808e-07 0.000998615)
(-0.000999584 1.77485e-06 -4.1307e-07 -1.59511e-09 1.24799e-06 0.000999586)
(-0.00100136 2.8823e-06 -3.15449e-07 -4.43249e-09 1.96792e-06 0.00100137)
(-0.00100374 3.92418e-06 -1.7756e-07 -8.97668e-09 2.52834e-06 0.00100375)
(-0.0010065 4.89802e-06 -8.75377e-09 -1.56423e-08 2.87176e-06 0.00100652)
(-0.0010094 5.79903e-06 1.81936e-07 -2.46028e-08 2.96455e-06 0.00100943)
(-0.00101224 6.62166e-06 3.85247e-07 -3.56188e-08 2.78884e-06 0.00101228)
(-0.00101484 7.35954e-06 5.92092e-07 -4.79268e-08 2.34621e-06 0.00101489)
(-0.00101706 8.00665e-06 7.94034e-07 -6.03056e-08 1.65877e-06 0.00101712)
(-0.00101879 8.55757e-06 9.83965e-07 -7.12896e-08 7.68078e-07 0.00101886)
(-0.00101999 9.00819e-06 1.15674e-06 -7.94906e-08 -2.70229e-07 0.00102007)
(-0.00102064 9.35579e-06 1.30984e-06 -8.38891e-08 -1.39406e-06 0.00102073)
(-0.00102076 9.59923e-06 1.44294e-06 -8.40095e-08 -2.54187e-06 0.00102084)
(-0.00102038 9.73843e-06 1.55832e-06 -7.9926e-08 -3.65952e-06 0.00102046)
(-0.00101954 9.7753e-06 1.66201e-06 -7.20516e-08 -4.71686e-06 0.00101961)
(-0.00101828 9.71319e-06 1.75971e-06 -6.08327e-08 -5.7092e-06 0.00101834)
(-0.00101661 9.55633e-06 1.85944e-06 -4.64422e-08 -6.65918e-06 0.00101665)
(-0.00101452 9.30978e-06 1.96753e-06 -2.84785e-08 -7.6195e-06 0.00101454)
(-0.00101195 8.97878e-06 2.09131e-06 -5.60613e-09 -8.6757e-06 0.00101196)
(-0.00100883 8.56839e-06 2.23528e-06 2.48873e-08 -9.94483e-06 0.0010088)
(-0.00100517 8.08684e-06 2.40849e-06 6.76808e-08 -1.15701e-05 0.0010051)
(-0.0010008 7.54322e-06 2.60912e-06 1.30511e-07 -1.37124e-05 0.00100067)
(-0.000995441 6.94429e-06 2.83156e-06 2.25946e-07 -1.65449e-05 0.000995215)
(-0.00098886 6.29807e-06 3.0686e-06 3.73783e-07 -2.02466e-05 0.000988486)
(-0.000980812 5.613e-06 3.31154e-06 6.03745e-07 -2.49847e-05 0.000980208)
(-0.000971049 4.89718e-06 3.55341e-06 9.58639e-07 -3.09038e-05 0.00097009)
(-0.000959306 4.15161e-06 3.7882e-06 1.4967e-06 -3.81056e-05 0.000957809)
(-0.000945287 3.33556e-06 4.00871e-06 2.29417e-06 -4.6646e-05 0.000942993)
(-0.000928668 2.20625e-06 4.16378e-06 3.45963e-06 -5.66296e-05 0.000925209)
(-0.000909082 9.71516e-07 4.18037e-06 5.14887e-06 -6.8234e-05 0.000903933)
(-0.000886255 8.72884e-08 4.10568e-06 7.58296e-06 -8.16281e-05 0.000878673)
(-0.000860083 -4.68005e-07 3.97235e-06 1.10652e-05 -9.69257e-05 0.000849018)
(-0.000830576 -7.64062e-07 3.78499e-06 1.59931e-05 -0.000114139 0.000814583)
(-0.000797871 -7.66344e-07 3.57389e-06 2.28676e-05 -0.000133126 0.000775003)
(-0.00076222 -4.40958e-07 3.39547e-06 3.22691e-05 -0.000153476 0.000729951)
(-0.000723815 2.14417e-07 3.32475e-06 4.47685e-05 -0.000174359 0.000679046)
(-0.000682421 1.15261e-06 3.43265e-06 6.07382e-05 -0.000194331 0.000621683)
(-0.000636791 2.25207e-06 3.74882e-06 8.00044e-05 -0.000211086 0.000556787)
(-0.000583786 3.2285e-06 4.22736e-06 0.000101237 -0.000221074 0.00048255)
(-0.000516832 3.53605e-06 4.43041e-06 0.000120718 -0.000218736 0.000396115)
(-0.000424604 2.66979e-06 3.33214e-06 0.000130343 -0.000195886 0.000294261)
(-0.000298619 1.02221e-06 1.20666e-06 0.000117985 -0.000145995 0.000180634)
(-0.000153707 8.70429e-08 -8.70442e-08 7.68535e-05 -7.68535e-05 7.68535e-05)
(-4.4805e-05 -3.48928e-09 -1.42799e-07 2.78122e-05 -2.17398e-05 1.69928e-05)
(-5.6068e-06 6.09667e-09 -1.77553e-08 4.19485e-06 -2.43373e-06 1.41195e-06)
(-2.47538e-07 5.03734e-10 -3.67846e-10 2.14107e-07 -8.4604e-08 3.34311e-08)
(-2.69568e-09 5.35464e-12 1.95245e-12 2.56483e-09 -5.79334e-10 1.30854e-10)
(-2.21853e-12 2.43748e-15 6.21125e-15 2.20711e-12 -1.58877e-13 1.14182e-14)
(-0.00115434 4.62569e-07 2.22843e-06 2.05315e-10 6.70653e-07 0.00115434)
(-0.00115434 1.36123e-06 2.29503e-06 1.69768e-09 1.94989e-06 0.00115434)
(-0.00115434 2.20441e-06 2.33668e-06 3.9527e-09 3.06509e-06 0.00115433)
(-0.00115433 2.9924e-06 2.4042e-06 5.60814e-09 3.92163e-06 0.00115433)
(-0.00115433 3.72141e-06 2.49653e-06 5.11471e-09 4.43638e-06 0.00115432)
(-0.00115433 4.38505e-06 2.61293e-06 1.45432e-09 4.56254e-06 0.00115432)
(-0.00115432 4.97648e-06 2.7517e-06 -5.50321e-09 4.27919e-06 0.00115433)
(-0.00115432 5.48782e-06 2.91005e-06 -1.48089e-08 3.59479e-06 0.00115433)
(-0.00115431 5.91155e-06 3.08415e-06 -2.4584e-08 2.54722e-06 0.00115434)
(-0.00115431 6.24049e-06 3.2697e-06 -3.24517e-08 1.20073e-06 0.00115434)
(-0.0011543 6.46848e-06 3.4626e-06 -3.61459e-08 -3.62719e-07 0.00115434)
(-0.0011543 6.59048e-06 3.66006e-06 -3.40449e-08 -2.05475e-06 0.00115434)
(-0.0011543 6.60269e-06 3.86036e-06 -2.54639e-08 -3.79078e-06 0.00115432)
(-0.0011543 6.50155e-06 4.06409e-06 -1.06323e-08 -5.49994e-06 0.00115431)
(-0.00115429 6.28554e-06 4.27635e-06 9.73988e-09 -7.14726e-06 0.00115428)
(-0.00115429 5.95444e-06 4.50225e-06 3.50551e-08 -8.73632e-06 0.00115426)
(-0.00115429 5.50833e-06 4.75112e-06 6.54348e-08 -1.03119e-05 0.00115422)
(-0.00115428 4.94741e-06 5.03185e-06 1.0236e-07 -1.19639e-05 0.00115418)
(-0.00115428 4.27052e-06 5.35703e-06 1.49473e-07 -1.3831e-05 0.00115413)
(-0.00115426 3.4738e-06 5.73586e-06 2.13574e-07 -1.60967e-05 0.00115405)
(-0.00115425 2.55698e-06 6.17858e-06 3.06216e-07 -1.89848e-05 0.00115394)
(-0.00115423 1.5235e-06 6.69325e-06 4.46326e-07 -2.27531e-05 0.00115378)
(-0.00115419 3.68546e-07 7.28755e-06 6.64126e-07 -2.76836e-05 0.00115353)
(-0.00115415 -9.16594e-07 7.96357e-06 1.00681e-06 -3.40801e-05 0.00115314)
(-0.00115409 -2.34278e-06 8.72094e-06 1.54512e-06 -4.22482e-05 0.00115254)
(-0.00115401 -3.92154e-06 9.56172e-06 2.38192e-06 -5.24901e-05 0.00115163)
(-0.00115391 -5.66395e-06 1.04883e-05 3.66126e-06 -6.50921e-05 0.00115025)
(-0.00115377 -7.57422e-06 1.15031e-05 5.57979e-06 -8.03261e-05 0.00114819)
(-0.00115361 -9.68978e-06 1.25293e-05 8.41305e-06 -9.85302e-05 0.0011452)
(-0.00114167 -1.17728e-05 1.27155e-05 1.24534e-05 -0.000119039 0.00112921)
(-0.00112291 -1.38051e-05 1.23958e-05 1.8209e-05 -0.000142345 0.0011047)
(-0.00110289 -1.58265e-05 1.19439e-05 2.63976e-05 -0.000169136 0.0010765)
(-0.00108241 -1.77489e-05 1.13621e-05 3.79132e-05 -0.000199585 0.0010445)
(-0.00106252 -1.94159e-05 1.06534e-05 5.39076e-05 -0.000233761 0.00100861)
(-0.00104437 -2.05773e-05 9.8568e-06 7.57759e-05 -0.000271459 0.00096859)
(-0.0010287 -2.0874e-05 9.06797e-06 0.000105048 -0.00031195 0.000923652)
(-0.00101496 -1.98523e-05 8.47066e-06 0.000143072 -0.000353517 0.000871889)
(-0.000999768 -1.70736e-05 8.33565e-06 0.000190248 -0.000392615 0.00080952)
(-0.000974569 -1.25343e-05 8.99562e-06 0.000244418 -0.000422495 0.000730151)
(-0.000922181 -7.54029e-06 9.7112e-06 0.000297621 -0.000431141 0.000624559)
(-0.000807654 -3.2476e-06 7.22258e-06 0.000327723 -0.000396597 0.000479932)
(-0.000589114 -1.8056e-06 1.80559e-06 0.000294557 -0.000294557 0.000294557)
(-0.000298619 -1.20666e-06 -1.02221e-06 0.000180634 -0.000145995 0.000117984)
(-8.24633e-05 -2.94818e-07 -5.10951e-07 5.89971e-05 -3.72127e-05 2.34662e-05)
(-1.00248e-05 -1.02635e-08 -4.97851e-08 8.22511e-06 -3.84776e-06 1.79971e-06)
(-4.55475e-07 5.14134e-10 -9.80618e-10 4.13389e-07 -1.31904e-07 4.20862e-08)
(-5.16561e-09 8.72367e-12 5.16577e-12 4.99833e-09 -9.14416e-10 1.67278e-10)
(-4.30218e-12 4.48137e-15 1.79773e-14 4.28756e-12 -2.50985e-13 1.46148e-14)
(-0.00115425 2.27563e-07 -4.83024e-06 6.31e-10 8.84202e-07 0.00115425)
(-0.00115425 6.68341e-07 -4.77884e-06 5.32515e-09 2.57052e-06 0.00115425)
(-0.00115426 1.07693e-06 -4.70961e-06 1.30686e-08 4.03483e-06 0.00115424)
(-0.00115426 1.45369e-06 -4.60442e-06 2.1125e-08 5.15332e-06 0.00115424)
(-0.00115427 1.79483e-06 -4.46489e-06 2.65184e-08 5.82335e-06 0.00115424)
(-0.00115428 2.09229e-06 -4.29198e-06 2.71728e-08 5.98627e-06 0.00115425)
(-0.00115429 2.33748e-06 -4.08772e-06 2.25278e-08 5.61784e-06 0.00115427)
(-0.0011543 2.52039e-06 -3.8555e-06 1.3823e-08 4.73159e-06 0.00115429)
(-0.00115432 2.63126e-06 -3.60003e-06 3.83947e-09 3.378e-06 0.00115431)
(-0.00115433 2.66016e-06 -3.32665e-06 -3.82328e-09 1.63958e-06 0.00115433)
(-0.00115434 2.5978e-06 -3.04039e-06 -5.71609e-09 -3.80773e-07 0.00115435)
(-0.00115435 2.43541e-06 -2.74469e-06 6.30649e-10 -2.57476e-06 0.00115435)
(-0.00115436 2.16463e-06 -2.44177e-06 1.629e-08 -4.84206e-06 0.00115435)
(-0.00115437 1.77613e-06 -2.13106e-06 4.10172e-08 -7.10321e-06 0.00115433)
(-0.00115438 1.2621e-06 -1.80641e-06 7.39878e-08 -9.32528e-06 0.00115431)
(-0.00115439 6.15402e-07 -1.46185e-06 1.14771e-07 -1.15255e-05 0.00115427)
(-0.0011544 -1.71962e-07 -1.0861e-06 1.64344e-07 -1.37741e-05 0.00115423)
(-0.0011544 -1.1087e-06 -6.68443e-07 2.26228e-07 -1.61974e-05 0.00115417)
(-0.0011544 -2.20527e-06 -1.93063e-07 3.07924e-07 -1.89802e-05 0.00115409)
(-0.0011544 -3.47294e-06 3.51439e-07 4.22792e-07 -2.23585e-05 0.00115397)
(-0.00115439 -4.9216e-06 9.79362e-07 5.93325e-07 -2.66188e-05 0.00115379)
(-0.00115437 -6.55934e-06 1.69878e-06 8.55816e-07 -3.20869e-05 0.00115351)
(-0.00115433 -8.40035e-06 2.52097e-06 1.26668e-06 -3.91104e-05 0.00115306)
(-0.00115428 -1.046e-05 3.44824e-06 1.91198e-06 -4.80578e-05 0.00115237)
(-0.0011542 -1.27551e-05 4.47744e-06 2.91801e-06 -5.9295e-05 0.00115128)
(-0.00115408 -1.5297e-05 5.6045e-06 4.46499e-06 -7.31803e-05 0.00114961)
(-0.00115392 -1.80808e-05 6.81228e-06 6.80241e-06 -9.0051e-05 0.00114711)
(-0.0011537 -2.10409e-05 8.07006e-06 1.02685e-05 -0.000110219 0.00114343)
(-0.00115342 -2.38497e-05 9.35534e-06 1.53209e-05 -0.000133967 0.0011381)
(-0.00115309 -2.67447e-05 1.0493e-05 2.26e-05 -0.000161783 0.00113049)
(-0.00115271 -3.02874e-05 1.13417e-05 3.29755e-05 -0.000194173 0.00111974)
(-0.00115228 -3.42611e-05 1.18294e-05 4.75472e-05 -0.000231291 0.00110474)
(-0.00115181 -3.81955e-05 1.18374e-05 6.76603e-05 -0.000272985 0.00108415)
(-0.00115133 -4.15772e-05 1.12389e-05 9.487e-05 -0.000318691 0.00105646)
(-0.00115091 -4.37359e-05 1.00283e-05 0.000130812 -0.000367244 0.0010201)
(-0.00115063 -4.3926e-05 8.44608e-06 0.00017699 -0.000416772 0.000973636)
(-0.00115054 -4.15424e-05 7.07445e-06 0.000234512 -0.000464722 0.000916028)
(-0.00115064 -3.63465e-05 6.77349e-06 0.000303821 -0.000507984 0.000846819)
(-0.00115079 -2.85438e-05 8.87566e-06 0.000384413 -0.00054308 0.000766379)
(-0.00115084 -2.1061e-05 1.42464e-05 0.00047525 -0.000566676 0.000675586)
(-0.00107438 -1.37724e-05 1.37724e-05 0.000537192 -0.000537192 0.000537192)
(-0.000807654 -7.22259e-06 3.24759e-06 0.000479932 -0.000396596 0.000327722)
(-0.000424604 -3.33214e-06 -2.66979e-06 0.000294261 -0.000195886 0.000130343)
(-0.000123409 -8.28931e-07 -1.19535e-06 9.73496e-05 -5.0388e-05 2.60593e-05)
(-1.60345e-05 -6.00997e-08 -1.12034e-07 1.39817e-05 -5.35888e-06 2.0528e-06)
(-7.73949e-07 -5.04337e-10 -2.31197e-09 7.24338e-07 -1.89581e-07 4.96114e-08)
(-9.08922e-09 6.61998e-12 8.54193e-12 8.88798e-09 -1.33742e-09 2.0124e-10)
(-7.60616e-12 4.81177e-15 3.80507e-14 7.58864e-12 -3.6661e-13 1.75184e-14)