/*--------------------------------*- C++ -*----------------------------------*\
| =========                 |                                                 |
| \\      /  F ield         | OpenFOAM: The Open Source CFD Toolbox           |
|  \\    /   O peration     | Version:  2412                                  |
|   \\  /    A nd           | Website:  www.openfoam.com                      |
|    \\/     M anipulation  |                                                 |
\*---------------------------------------------------------------------------*/
FoamFile
{
    version     2.0;
    format      ascii;
    arch        "LSB;label=32;scalar=64";
    class       volSymmTensorField;
    location    "1830";
    object      Tij8;
}
// * * * * * * * * * * * * * * * * * * * * * * * * * * * * * * * * * * * * * //

dimensions      [0 0 0 0 0 0 0];

internalField   nonuniform List<symmTensor> 
2304
(
(1.34196e-16 -1.07457e-17 1.25281e-19 3.47173e-20 2.69545e-17 -1.34231e-16)
(1.33295e-16 -3.98553e-18 4.41226e-19 4.67798e-20 7.83159e-17 -1.33342e-16)
(1.31229e-16 1.69437e-17 9.92519e-19 -2.25671e-19 1.23554e-16 -1.31004e-16)
(1.27897e-16 2.23592e-17 1.6792e-18 -4.05752e-19 1.60634e-16 -1.27491e-16)
(1.23821e-16 2.70078e-17 2.3962e-18 -6.13669e-19 1.88557e-16 -1.23208e-16)
(1.19192e-16 3.15802e-17 3.05881e-18 -8.55576e-19 2.07355e-16 -1.18337e-16)
(1.14316e-16 3.56705e-17 3.6089e-18 -1.11288e-18 2.17737e-16 -1.13203e-16)
(1.09423e-16 3.94396e-17 4.02254e-18 -1.38101e-18 2.21195e-16 -1.08042e-16)
(1.04765e-16 4.27346e-17 4.30445e-18 -1.6456e-18 2.19591e-16 -1.0312e-16)
(1.00519e-16 4.58199e-17 4.48185e-18 -1.90893e-18 2.14975e-16 -9.861e-17)
(9.68014e-17 4.87663e-17 4.59148e-18 -2.16907e-18 2.09187e-16 -9.46323e-17)
(9.36516e-17 5.21381e-17 4.66719e-18 -2.44865e-18 2.03535e-16 -9.12029e-17)
(9.09958e-17 5.59055e-17 4.73322e-18 -2.7473e-18 1.98756e-16 -8.82485e-17)
(8.87985e-17 6.18504e-17 4.79238e-18 -3.15269e-18 1.94648e-16 -8.56458e-17)
(8.67228e-17 7.01841e-17 4.8196e-18 -3.68286e-18 1.90017e-16 -8.304e-17)
(8.46383e-17 8.20829e-17 4.77349e-18 -4.40402e-18 1.83202e-16 -8.02343e-17)
(8.21739e-17 9.82455e-17 4.59448e-18 -5.35911e-18 1.72044e-16 -7.68148e-17)
(7.92166e-17 1.20241e-16 4.21141e-18 -6.63537e-18 1.54076e-16 -7.25812e-17)
(7.54252e-17 1.48704e-16 3.54894e-18 -8.26624e-18 1.26753e-16 -6.7159e-17)
(7.07402e-17 1.83068e-16 2.55313e-18 -1.02086e-17 8.8216e-17 -6.05316e-17)
(6.51453e-17 2.23487e-16 1.21134e-18 -1.24413e-17 3.77416e-17 -5.2704e-17)
(5.90326e-17 2.72234e-16 -4.44666e-19 -1.50397e-17 -2.44173e-17 -4.3993e-17)
(5.26793e-17 3.30354e-16 -2.33735e-18 -1.79827e-17 -9.70485e-17 -3.46966e-17)
(4.63895e-17 3.9317e-16 -4.31188e-18 -2.09059e-17 -1.7665e-16 -2.54836e-17)
(4.06655e-17 4.57276e-16 -6.13313e-18 -2.35085e-17 -2.57113e-16 -1.71571e-17)
(3.57122e-17 5.13426e-16 -7.5304e-18 -2.52134e-17 -3.30143e-16 -1.04988e-17)
(3.19063e-17 5.58345e-16 -8.25422e-18 -2.58503e-17 -3.86778e-16 -6.056e-18)
(2.95143e-17 5.97114e-16 -8.17294e-18 -2.57448e-17 -4.21056e-16 -3.76951e-18)
(3.40864e-17 7.60511e-16 -7.16884e-18 -3.07445e-17 -4.4652e-16 -3.34187e-18)
(4.37537e-17 1.00832e-15 -5.39416e-18 -3.78025e-17 -4.79475e-16 -5.95127e-18)
(5.39173e-17 1.17996e-15 -2.93513e-18 -3.95248e-17 -5.04403e-16 -1.43925e-17)
(6.66658e-17 1.30738e-15 7.49806e-19 -3.77041e-17 -4.99205e-16 -2.89616e-17)
(8.18344e-17 1.40693e-15 5.73925e-18 -3.34234e-17 -4.57228e-16 -4.8411e-17)
(9.5847e-17 1.44113e-15 1.14057e-17 -2.6375e-17 -3.79108e-16 -6.9472e-17)
(1.02996e-16 1.36145e-15 1.64048e-17 -1.71607e-17 -2.72243e-16 -8.58351e-17)
(9.70205e-17 1.12893e-15 1.86486e-17 -7.86287e-18 -1.54523e-16 -8.91576e-17)
(7.52399e-17 7.42445e-16 1.58769e-17 -1.50775e-18 -5.27414e-17 -7.37322e-17)
(4.34884e-17 2.67713e-16 7.13361e-18 -1.17093e-19 8.30529e-18 -4.33713e-17)
(1.59725e-17 -1.68571e-16 -5.6209e-18 -2.51263e-18 2.21762e-17 -1.34599e-17)
(4.6469e-18 -4.1199e-16 -1.65051e-17 -4.61442e-18 7.77311e-18 -3.24813e-20)
(6.3599e-18 -3.85772e-16 -1.86059e-17 -3.48823e-18 -5.74296e-18 -2.87167e-18)
(7.38941e-18 -2.18512e-16 -1.27571e-17 -1.16175e-18 -6.5393e-18 -6.22766e-18)
(4.07175e-18 -8.55074e-17 -6.14344e-18 -1.24195e-19 -2.61782e-18 -3.94756e-18)
(1.19701e-18 -2.5791e-17 -2.34994e-18 1.75818e-20 -5.14014e-19 -1.2146e-18)
(1.85853e-19 -6.07133e-18 -7.37454e-19 4.93645e-21 -4.30703e-20 -1.90789e-19)
(1.18405e-20 -9.92734e-19 -1.75623e-19 1.52477e-22 -2.56452e-22 -1.1993e-20)
(1.56988e-22 -1.01612e-19 -3.15283e-20 -7.47885e-24 4.01619e-23 -1.49509e-22)
(9.3184e-25 1.47645e-25 1.47675e-25 -4.65874e-25 4.6592e-25 -4.65967e-25)
(1.16038e-13 4.57422e-14 4.6675e-17 -1.1354e-16 8.05579e-14 -1.15925e-13)
(1.26726e-13 1.2184e-13 8.58227e-16 -8.80579e-16 2.34045e-13 -1.25845e-13)
(1.37807e-13 1.96206e-13 2.28961e-15 -2.30621e-15 3.69344e-13 -1.35501e-13)
(1.54723e-13 2.7557e-13 4.06999e-15 -4.44424e-15 4.80828e-13 -1.50279e-13)
(1.76238e-13 3.42836e-13 5.94616e-15 -6.93606e-15 5.65581e-13 -1.69302e-13)
(2.01215e-13 3.97587e-13 7.70578e-15 -9.57173e-15 6.23471e-13 -1.91643e-13)
(2.27916e-13 4.35904e-13 9.20199e-15 -1.20499e-14 6.56335e-13 -2.15866e-13)
(2.54418e-13 4.56183e-13 1.03669e-14 -1.41155e-14 6.68188e-13 -2.40302e-13)
(2.78547e-13 4.57139e-13 1.11992e-14 -1.55366e-14 6.64148e-13 -2.6301e-13)
(2.98425e-13 4.40831e-13 1.17481e-14 -1.62276e-14 6.4989e-13 -2.82197e-13)
(3.1268e-13 4.11478e-13 1.20858e-14 -1.62401e-14 6.30536e-13 -2.9644e-13)
(3.20864e-13 3.76748e-13 1.22814e-14 -1.58257e-14 6.09771e-13 -3.05038e-13)
(3.23383e-13 3.44667e-13 1.2388e-14 -1.53159e-14 5.89665e-13 -3.08067e-13)
(3.21959e-13 3.34495e-13 1.24206e-14 -1.55799e-14 5.69657e-13 -3.06379e-13)
(3.19148e-13 3.57439e-13 1.23386e-14 -1.72109e-14 5.46578e-13 -3.01938e-13)
(3.17399e-13 4.27159e-13 1.20721e-14 -2.0937e-14 5.15957e-13 -2.96462e-13)
(3.19757e-13 5.55971e-13 1.15174e-14 -2.74387e-14 4.72078e-13 -2.92318e-13)
(3.28798e-13 7.58911e-13 1.05608e-14 -3.75108e-14 4.08558e-13 -2.91287e-13)
(3.47173e-13 1.04315e-12 9.09698e-15 -5.15254e-14 3.19104e-13 -2.95648e-13)
(3.76051e-13 1.406e-12 7.09293e-15 -6.92668e-14 1.99317e-13 -3.06784e-13)
(4.16651e-13 1.84615e-12 4.66692e-15 -9.04197e-14 4.77435e-14 -3.26231e-13)
(4.69435e-13 2.36799e-12 2.14574e-15 -1.14746e-13 -1.34155e-13 -3.54688e-13)
(5.34269e-13 2.96259e-12 5.86085e-17 -1.41127e-13 -3.4198e-13 -3.93143e-13)
(6.07489e-13 3.58355e-12 -8.81139e-16 -1.6645e-13 -5.65591e-13 -4.41039e-13)
(6.83267e-13 4.17641e-12 1.88668e-16 -1.87266e-13 -7.88762e-13 -4.96001e-13)
(7.52178e-13 4.65826e-12 3.93641e-15 -1.99184e-13 -9.9043e-13 -5.52993e-13)
(8.04978e-13 5.00693e-12 1.09139e-14 -2.01348e-13 -1.14867e-12 -6.0363e-13)
(8.46176e-13 5.47401e-12 2.34763e-14 -2.0504e-13 -1.25024e-12 -6.41136e-13)
(9.18966e-13 6.93674e-12 5.21055e-14 -2.43858e-13 -1.32891e-12 -6.75108e-13)
(1.04298e-12 9.03387e-12 1.00436e-13 -2.95568e-13 -1.41882e-12 -7.47414e-13)
(1.15885e-12 1.05937e-11 1.59498e-13 -3.12776e-13 -1.4805e-12 -8.46076e-13)
(1.24351e-12 1.16259e-11 2.30238e-13 -3.00102e-13 -1.46688e-12 -9.43405e-13)
(1.28864e-12 1.22304e-11 3.13854e-13 -2.66298e-13 -1.36522e-12 -1.02234e-12)
(1.27143e-12 1.21024e-11 3.98095e-13 -2.10593e-13 -1.17518e-12 -1.06084e-12)
(1.16433e-12 1.08432e-11 4.5351e-13 -1.37145e-13 -9.08301e-13 -1.02718e-12)
(9.52581e-13 8.2269e-12 4.34428e-13 -6.09617e-14 -5.98145e-13 -8.9162e-13)
(6.56802e-13 4.44836e-12 2.94189e-13 -4.50271e-15 -3.02424e-13 -6.52299e-13)
(3.46523e-13 2.88095e-13 2.27466e-14 1.52121e-14 -8.69604e-14 -3.61735e-13)
(1.17391e-13 -3.04438e-12 -3.10342e-13 2.47223e-15 1.03633e-14 -1.19864e-13)
(2.37645e-14 -4.40185e-12 -5.46461e-13 -1.58295e-14 1.16298e-14 -7.93505e-15)
(2.52431e-14 -3.58818e-12 -5.39908e-13 -1.57769e-14 -1.18341e-14 -9.46625e-15)
(3.32619e-14 -1.88172e-12 -3.44181e-13 -5.35214e-15 -1.27419e-14 -2.79098e-14)
(1.99186e-14 -6.55077e-13 -1.47923e-13 -3.43299e-16 -3.71877e-15 -1.95753e-14)
(6.47098e-15 -1.5126e-13 -4.34888e-14 1.03028e-16 -2.18745e-18 -6.57401e-15)
(1.20414e-15 -2.04274e-14 -7.87681e-15 -2.94953e-17 2.25384e-16 -1.17464e-15)
(1.09954e-16 -7.46609e-16 -4.22624e-16 -1.87392e-17 4.2024e-17 -9.12152e-17)
(1.99792e-18 -7.50061e-22 -3.78945e-23 -9.98966e-19 9.98959e-19 -9.98953e-19)
(1.57014e-22 3.15299e-20 1.01617e-19 -1.49537e-22 4.01599e-23 -7.47738e-24)
(3.37585e-11 1.81658e-11 -3.00361e-14 -4.18845e-14 7.80436e-12 -3.37166e-11)
(3.53047e-11 3.555e-11 2.67368e-14 -2.34423e-13 2.27502e-11 -3.50703e-11)
(3.70139e-11 4.46251e-11 1.35571e-13 -4.66547e-13 3.59715e-11 -3.65473e-11)
(3.9695e-11 6.26305e-11 2.65348e-13 -8.96704e-13 4.68678e-11 -3.87983e-11)
(4.30798e-11 7.73088e-11 4.0555e-13 -1.38564e-12 5.5212e-11 -4.16942e-11)
(4.69826e-11 8.80401e-11 5.43399e-13 -1.87309e-12 6.09812e-11 -4.51095e-11)
(5.11667e-11 9.39462e-11 6.69866e-13 -2.28967e-12 6.43342e-11 -4.88771e-11)
(5.53872e-11 9.45563e-11 7.79237e-13 -2.57441e-12 6.56257e-11 -5.28128e-11)
(5.93853e-11 8.96956e-11 8.67947e-13 -2.67881e-12 6.53143e-11 -5.67065e-11)
(6.2946e-11 7.99195e-11 9.33715e-13 -2.58532e-12 6.39099e-11 -6.03607e-11)
(6.59222e-11 6.64194e-11 9.75275e-13 -2.31059e-12 6.18732e-11 -6.36116e-11)
(6.82795e-11 5.1039e-11 9.92572e-13 -1.90878e-12 5.95365e-11 -6.63707e-11)
(7.00887e-11 3.59039e-11 9.87631e-13 -1.45848e-12 5.7086e-11 -6.86302e-11)
(7.15998e-11 2.49096e-11 9.64843e-13 -1.11699e-12 5.44653e-11 -7.04828e-11)
(7.31926e-11 2.06273e-11 9.28092e-13 -1.00364e-12 5.1395e-11 -7.2189e-11)
(7.52406e-11 2.57158e-11 8.81719e-13 -1.2451e-12 4.7483e-11 -7.39955e-11)
(7.82384e-11 4.25239e-11 8.28567e-13 -1.95589e-12 4.2236e-11 -7.62825e-11)
(8.26401e-11 7.35379e-11 7.72689e-13 -3.25176e-12 3.51165e-11 -7.93883e-11)
(8.89558e-11 1.19913e-10 7.19869e-13 -5.18354e-12 2.5621e-11 -8.37723e-11)
(9.75082e-11 1.81208e-10 6.84692e-13 -7.71787e-12 1.34121e-11 -8.97903e-11)
(1.08576e-10 2.56518e-10 7.02847e-13 -1.0778e-11 -1.6057e-12 -9.77985e-11)
(1.22338e-10 3.45087e-10 8.44525e-13 -1.42655e-11 -1.92573e-11 -1.08072e-10)
(1.38895e-10 4.44172e-10 1.21308e-12 -1.79707e-11 -3.90936e-11 -1.20924e-10)
(1.57797e-10 5.45842e-10 1.92818e-12 -2.14523e-11 -6.01887e-11 -1.36344e-10)
(1.78188e-10 6.40808e-10 3.11318e-12 -2.4226e-11 -8.1154e-11 -1.53962e-10)
(1.98581e-10 7.15801e-10 4.81891e-12 -2.57013e-11 -1.00208e-10 -1.7288e-10)
(2.17228e-10 7.67719e-10 7.07989e-12 -2.57791e-11 -1.15504e-10 -1.91449e-10)
(2.34149e-10 8.42652e-10 1.05827e-11 -2.62209e-11 -1.26063e-10 -2.07928e-10)
(2.54837e-10 1.08265e-09 1.84747e-11 -3.17425e-11 -1.35606e-10 -2.23094e-10)
(2.83103e-10 1.43193e-09 3.2015e-11 -3.94879e-11 -1.46684e-10 -2.43615e-10)
(3.09593e-10 1.70289e-09 4.86843e-11 -4.29789e-11 -1.54778e-10 -2.66614e-10)
(3.28994e-10 1.89274e-09 6.86576e-11 -4.27036e-11 -1.56328e-10 -2.8629e-10)
(3.38659e-10 2.01755e-09 9.25202e-11 -3.97885e-11 -1.50563e-10 -2.9887e-10)
(3.33327e-10 2.024e-09 1.17049e-10 -3.36505e-11 -1.36451e-10 -2.99676e-10)
(3.06588e-10 1.83957e-09 1.33878e-10 -2.39902e-11 -1.13061e-10 -2.82598e-10)
(2.54576e-10 1.41837e-09 1.29519e-10 -1.20231e-11 -8.13098e-11 -2.42553e-10)
(1.8106e-10 7.84433e-10 8.9357e-11 -8.49739e-13 -4.57398e-11 -1.80211e-10)
(1.0108e-10 6.35768e-11 8.46438e-12 5.56498e-12 -1.48493e-11 -1.06645e-10)
(3.71474e-11 -5.36086e-10 -9.47418e-11 5.29231e-12 2.58892e-12 -4.24397e-11)
(5.17285e-12 -8.01589e-10 -1.7266e-10 1.28369e-12 4.46931e-12 -6.45654e-12)
(7.83699e-13 -6.73828e-10 -1.7636e-10 -7.33933e-13 -1.40988e-13 -4.97665e-14)
(3.96435e-12 -3.62046e-10 -1.15516e-10 -2.41713e-13 -1.16572e-12 -3.72264e-12)
(3.37419e-12 -1.27052e-10 -5.01961e-11 1.29914e-14 2.39138e-14 -3.38718e-12)
(1.33569e-12 -2.82657e-11 -1.42646e-11 -8.08045e-14 3.1856e-13 -1.25488e-12)
(2.77197e-13 -2.96466e-12 -2.01323e-12 -6.20706e-14 1.15625e-13 -2.15126e-13)
(1.90558e-14 -1.63805e-17 1.32135e-17 -9.52791e-15 9.52791e-15 -9.52792e-15)
(1.09955e-16 4.22618e-16 7.46597e-16 -9.12156e-17 4.20241e-17 -1.87392e-17)
(1.1841e-20 1.75627e-19 9.92757e-19 -1.19935e-20 -2.56475e-22 1.52478e-22)
(4.17768e-09 3.59391e-10 1.47054e-11 -6.88938e-13 1.16119e-10 -4.17699e-09)
(4.21736e-09 8.34025e-10 1.53063e-11 -4.62319e-12 3.3449e-10 -4.21274e-09)
(4.20272e-09 1.20042e-09 1.60404e-11 -1.07036e-11 5.26723e-10 -4.19202e-09)
(4.1781e-09 1.66347e-09 1.68426e-11 -2.02906e-11 6.88882e-10 -4.15781e-09)
(4.14017e-09 2.04384e-09 1.77974e-11 -3.12263e-11 8.14662e-10 -4.10895e-09)
(4.08563e-09 2.32593e-09 1.89012e-11 -4.22353e-11 9.03395e-10 -4.04339e-09)
(4.01217e-09 2.49083e-09 2.0148e-11 -5.19021e-11 9.56621e-10 -3.96027e-09)
(3.91868e-09 2.52798e-09 2.14838e-11 -5.8953e-11 9.78488e-10 -3.85972e-09)
(3.80567e-09 2.43504e-09 2.27855e-11 -6.23909e-11 9.74636e-10 -3.74328e-09)
(3.67491e-09 2.22613e-09 2.38648e-11 -6.18296e-11 9.51671e-10 -3.61308e-09)
(3.52902e-09 1.93096e-09 2.45199e-11 -5.76068e-11 9.15905e-10 -3.47142e-09)
(3.37063e-09 1.59341e-09 2.4605e-11 -5.08044e-11 8.7232e-10 -3.31982e-09)
(3.2021e-09 1.26576e-09 2.40964e-11 -4.30745e-11 8.24251e-10 -3.15903e-09)
(3.02587e-09 1.03823e-09 2.31687e-11 -3.75458e-11 7.72574e-10 -2.98833e-09)
(2.84071e-09 9.73871e-10 2.21026e-11 -3.6691e-11 7.14952e-10 -2.80402e-09)
(2.64665e-09 1.1355e-09 2.12809e-11 -4.30181e-11 6.47636e-10 -2.60363e-09)
(2.44143e-09 1.57927e-09 2.11203e-11 -5.87501e-11 5.6553e-10 -2.38268e-09)
(2.22491e-09 2.36119e-09 2.21331e-11 -8.5958e-11 4.63051e-10 -2.13895e-09)
(1.99555e-09 3.50669e-09 2.49103e-11 -1.2541e-10 3.34696e-10 -1.87014e-09)
(1.75492e-09 4.98975e-09 3.02076e-11 -1.75755e-10 1.75893e-10 -1.57916e-09)
(1.5082e-09 6.78418e-09 3.94102e-11 -2.35248e-10 -1.58635e-11 -1.27296e-09)
(1.26597e-09 8.89423e-09 5.50948e-11 -3.02791e-10 -2.39405e-10 -9.63179e-10)
(1.03919e-09 1.12565e-08 8.07246e-11 -3.74568e-10 -4.91087e-10 -6.64624e-10)
(8.42114e-10 1.36893e-08 1.20009e-10 -4.42532e-10 -7.63965e-10 -3.99582e-10)
(6.92553e-10 1.60009e-08 1.76766e-10 -4.98516e-10 -1.04671e-09 -1.94037e-10)
(6.06404e-10 1.79104e-08 2.5244e-10 -5.31975e-10 -1.32399e-09 -7.4429e-11)
(6.02137e-10 1.93041e-08 3.47341e-10 -5.38941e-10 -1.57469e-09 -6.31958e-11)
(7.19922e-10 2.10869e-08 4.82023e-10 -5.48203e-10 -1.77263e-09 -1.7172e-10)
(1.04965e-09 2.62822e-08 7.5854e-10 -6.47434e-10 -1.9407e-09 -4.02213e-10)
(1.56827e-09 3.38731e-08 1.22391e-09 -7.95715e-10 -2.13012e-09 -7.72552e-10)
(2.16126e-09 3.99495e-08 1.80079e-09 -8.80041e-10 -2.31382e-09 -1.28122e-09)
(2.80302e-09 4.44318e-08 2.49734e-09 -9.07942e-10 -2.44963e-09 -1.89507e-09)
(3.46017e-09 4.76188e-08 3.33701e-09 -8.95634e-10 -2.52038e-09 -2.56454e-09)
(4.01346e-09 4.81436e-08 4.20722e-09 -8.14541e-10 -2.48683e-09 -3.19892e-09)
(4.27927e-09 4.40548e-08 4.80043e-09 -6.2715e-10 -2.28131e-09 -3.65212e-09)
(4.06862e-09 3.38683e-08 4.59483e-09 -3.23349e-10 -1.83936e-09 -3.74527e-09)
(3.29843e-09 1.76908e-08 2.97361e-09 3.83347e-11 -1.16258e-09 -3.33676e-09)
(2.11911e-09 -1.7067e-09 -3.79916e-10 3.12356e-10 -3.93113e-10 -2.43147e-09)
(9.29374e-10 -1.89553e-08 -4.90224e-09 3.42199e-10 1.90319e-10 -1.27157e-09)
(1.56781e-10 -2.73902e-08 -8.63312e-09 1.47571e-10 3.2421e-10 -3.04353e-10)
(-4.8844e-11 -2.34024e-08 -8.96865e-09 2.14118e-12 1.09275e-10 4.67028e-11)
(4.27761e-11 -1.24368e-08 -5.81791e-09 3.13651e-13 -9.8053e-12 -4.30898e-11)
(8.1034e-11 -3.9048e-09 -2.26526e-09 -1.88322e-14 1.28341e-11 -8.10151e-11)
(4.0541e-11 -5.75264e-10 -4.26849e-10 -8.8607e-12 1.68533e-11 -3.16803e-11)
(7.23976e-12 -1.24025e-14 1.21329e-14 -3.61988e-12 3.61988e-12 -3.61988e-12)
(2.77197e-13 2.01322e-12 2.96464e-12 -2.15126e-13 1.15624e-13 -6.20706e-14)
(1.20414e-15 7.8768e-15 2.04274e-14 -1.17464e-15 2.25384e-16 -2.94954e-17)
(1.85856e-19 7.37461e-19 6.07139e-18 -1.90792e-19 -4.30703e-20 4.93636e-21)
(4.94268e-08 9.38775e-10 3.18873e-10 -1.29143e-12 4.3678e-10 -4.94255e-08)
(4.94301e-08 3.68461e-09 3.18294e-10 -1.56967e-11 1.29426e-09 -4.94144e-08)
(4.85374e-08 6.87359e-09 3.07551e-10 -4.85916e-11 2.07267e-09 -4.84889e-08)
(4.73078e-08 9.43987e-09 2.93849e-10 -9.15287e-11 2.72197e-09 -4.72162e-08)
(4.58303e-08 1.16107e-08 2.791e-10 -1.41617e-10 3.23558e-09 -4.56886e-08)
(4.41824e-08 1.33344e-08 2.65242e-10 -1.94329e-10 3.60967e-09 -4.3988e-08)
(4.24405e-08 1.45307e-08 2.53899e-10 -2.4438e-10 3.84704e-09 -4.21961e-08)
(4.06751e-08 1.51539e-08 2.4594e-10 -2.8677e-10 3.9595e-09 -4.03883e-08)
(3.89478e-08 1.5197e-08 2.41307e-10 -3.17382e-10 3.96458e-09 -3.86304e-08)
(3.73053e-08 1.47324e-08 2.39046e-10 -3.34405e-10 3.88444e-09 -3.69709e-08)
(3.5777e-08 1.39154e-08 2.3776e-10 -3.3905e-10 3.74181e-09 -3.5438e-08)
(3.43708e-08 1.29752e-08 2.36213e-10 -3.35714e-10 3.55633e-09 -3.40351e-08)
(3.30785e-08 1.2198e-08 2.33949e-10 -3.3157e-10 3.34355e-09 -3.2747e-08)
(3.18786e-08 1.20945e-08 2.32069e-10 -3.40763e-10 3.11426e-09 -3.15378e-08)
(3.07193e-08 1.30432e-08 2.32706e-10 -3.74779e-10 2.86741e-09 -3.03445e-08)
(2.95585e-08 1.54375e-08 2.39186e-10 -4.45411e-10 2.59828e-09 -2.9113e-08)
(2.83392e-08 1.96525e-08 2.55622e-10 -5.63305e-10 2.2981e-09 -2.77759e-08)
(2.70244e-08 2.60675e-08 2.87655e-10 -7.3817e-10 1.95731e-09 -2.62862e-08)
(2.55708e-08 3.48906e-08 3.42483e-10 -9.73629e-10 1.56516e-09 -2.45972e-08)
(2.39588e-08 4.6073e-08 4.30152e-10 -1.26481e-09 1.10849e-09 -2.2694e-08)
(2.21501e-08 5.95878e-08 5.67497e-10 -1.60601e-09 5.75439e-10 -2.05441e-08)
(2.01966e-08 7.54909e-08 7.83212e-10 -1.99252e-09 -3.1166e-11 -1.82041e-08)
(1.8156e-08 9.34746e-08 1.11661e-09 -2.40923e-09 -7.0495e-10 -1.57468e-08)
(1.60847e-08 1.12611e-07 1.61384e-09 -2.82466e-09 -1.44284e-09 -1.326e-08)
(1.40464e-08 1.31901e-07 2.32785e-09 -3.20678e-09 -2.23588e-09 -1.08396e-08)
(1.2083e-08 1.49742e-07 3.29849e-09 -3.50864e-09 -3.07633e-09 -8.57439e-09)
(1.02446e-08 1.64877e-07 4.54933e-09 -3.69302e-09 -3.93326e-09 -6.5516e-09)
(8.67215e-09 1.80272e-07 6.21144e-09 -3.82931e-09 -4.67954e-09 -4.84284e-09)
(7.69823e-09 2.0965e-07 8.97061e-09 -4.2386e-09 -5.15105e-09 -3.45963e-09)
(6.90602e-09 2.52364e-07 1.3365e-08 -4.89665e-09 -5.68291e-09 -2.00936e-09)
(6.63866e-09 2.91216e-07 1.90847e-08 -5.46546e-09 -6.47655e-09 -1.1732e-09)
(7.1345e-09 3.24251e-07 2.62975e-08 -5.96467e-09 -7.43021e-09 -1.16983e-09)
(8.26978e-09 3.5064e-07 3.51885e-08 -6.39787e-09 -8.48376e-09 -1.87191e-09)
(9.55411e-09 3.59919e-07 4.46918e-08 -6.48812e-09 -9.49735e-09 -3.06598e-09)
(1.02015e-08 3.37653e-07 5.18557e-08 -5.76465e-09 -1.01499e-08 -4.43683e-09)
(9.36405e-09 2.71206e-07 5.14383e-08 -3.74213e-09 -9.97416e-09 -5.62192e-09)
(6.61859e-09 1.56707e-07 3.65827e-08 -3.42373e-10 -8.50215e-09 -6.27622e-09)
(2.59863e-09 7.25914e-09 1.9825e-09 3.47574e-09 -5.54508e-09 -6.07437e-09)
(-8.59641e-10 -1.44626e-07 -5.08286e-08 5.50736e-09 -1.551e-09 -4.64772e-09)
(-1.9511e-09 -2.42488e-07 -1.0348e-07 3.80457e-09 1.52525e-09 -1.85346e-09)
(-1.20522e-09 -2.24198e-07 -1.16021e-07 8.88967e-10 1.22811e-09 3.16256e-10)
(-1.45377e-10 -1.1443e-07 -7.21725e-08 7.28119e-11 9.49652e-11 7.25651e-11)
(3.45351e-10 -2.54984e-08 -1.99305e-08 -2.94779e-11 1.20273e-10 -3.15873e-10)
(2.43043e-10 -4.76963e-13 4.74759e-13 -1.21521e-10 1.21521e-10 -1.21521e-10)
(4.05409e-11 4.26848e-10 5.75263e-10 -3.16802e-11 1.68533e-11 -8.8607e-12)
(1.33569e-12 1.42645e-11 2.82657e-11 -1.25488e-12 3.1856e-13 -8.08045e-14)
(6.47099e-15 4.34888e-14 1.5126e-13 -6.57402e-15 -2.18683e-18 1.03027e-16)
(1.19702e-18 2.34995e-18 2.57911e-17 -1.2146e-18 -5.14014e-19 1.75813e-20)
(4.4915e-10 2.89283e-09 -5.95163e-13 -2.93243e-12 7.22416e-10 -4.46217e-10)
(3.81957e-10 1.21217e-08 -1.12476e-11 -3.89456e-11 2.10562e-09 -3.43011e-10)
(3.27794e-10 2.29188e-08 -3.53828e-11 -1.22998e-10 3.32904e-09 -2.04796e-10)
(3.07638e-10 3.11894e-08 -6.15541e-11 -2.29621e-10 4.3461e-09 -7.80173e-11)
(3.83742e-10 3.82267e-08 -8.41044e-11 -3.54169e-10 5.13529e-09 -2.95728e-11)
(5.98595e-10 4.39308e-08 -9.64487e-11 -4.86362e-10 5.68785e-09 -1.12233e-10)
(9.69903e-10 4.81295e-08 -9.3595e-11 -6.14511e-10 6.00921e-09 -3.55392e-10)
(1.48792e-09 5.07439e-08 -7.3651e-11 -7.27582e-10 6.11954e-09 -7.60342e-10)
(2.11847e-09 5.18018e-08 -3.82645e-11 -8.16628e-10 6.0489e-09 -1.30185e-09)
(2.81342e-09 5.15299e-08 7.79056e-12 -8.77504e-10 5.83291e-09 -1.93591e-09)
(3.52417e-09 5.03714e-08 5.84306e-11 -9.12517e-10 5.50545e-09 -2.61165e-09)
(4.21476e-09 4.89356e-08 1.08657e-10 -9.30046e-10 5.09249e-09 -3.28472e-09)
(4.86826e-09 4.79702e-08 1.56564e-10 -9.43716e-10 4.61164e-09 -3.92455e-09)
(5.50243e-09 4.88284e-08 2.06202e-10 -9.80645e-10 4.06267e-09 -4.52179e-09)
(6.15951e-09 5.25059e-08 2.66627e-10 -1.06137e-09 3.43379e-09 -5.09813e-09)
(6.8886e-09 6.00322e-08 3.5151e-10 -1.20552e-09 2.70812e-09 -5.68309e-09)
(7.75806e-09 7.23889e-08 4.78758e-10 -1.42881e-09 1.86464e-09 -6.32926e-09)
(8.83061e-09 9.0572e-08 6.72798e-10 -1.74338e-09 8.82039e-10 -7.08723e-09)
(1.01764e-08 1.15299e-07 9.6725e-10 -2.1514e-09 -2.55081e-10 -8.02499e-09)
(1.18575e-08 1.47521e-07 1.41737e-09 -2.65467e-09 -1.56128e-09 -9.20288e-09)
(1.39671e-08 1.87082e-07 2.09894e-09 -3.22944e-09 -3.04214e-09 -1.07376e-08)
(1.65094e-08 2.3294e-07 3.11787e-09 -3.83375e-09 -4.66995e-09 -1.26756e-08)
(1.94714e-08 2.8473e-07 4.63824e-09 -4.43706e-09 -6.40415e-09 -1.50343e-08)
(2.28001e-08 3.41007e-07 6.86734e-09 -4.98959e-09 -8.18144e-09 -1.78105e-08)
(2.64176e-08 4.00277e-07 1.00628e-08 -5.44393e-09 -9.92724e-09 -2.09736e-08)
(3.02386e-08 4.59788e-07 1.44847e-08 -5.73591e-09 -1.15483e-08 -2.45027e-08)
(3.42003e-08 5.17337e-07 2.03969e-08 -5.81327e-09 -1.29468e-08 -2.8387e-08)
(3.84236e-08 5.8287e-07 2.86248e-08 -5.78093e-09 -1.41386e-08 -3.26427e-08)
(4.34594e-08 7.387e-07 4.49849e-08 -6.58093e-09 -1.59181e-08 -3.68785e-08)
(4.75444e-08 9.48268e-07 7.13429e-08 -7.79436e-09 -1.77858e-08 -3.975e-08)
(4.96744e-08 1.09649e-06 1.01628e-07 -8.38214e-09 -1.87011e-08 -4.12922e-08)
(5.08587e-08 1.20555e-06 1.37398e-07 -8.88034e-09 -1.93027e-08 -4.19784e-08)
(5.15506e-08 1.29628e-06 1.81414e-07 -9.66062e-09 -1.99959e-08 -4.189e-08)
(5.16101e-08 1.34547e-06 2.30907e-07 -1.04201e-08 -2.06042e-08 -4.119e-08)
(5.0765e-08 1.32482e-06 2.78344e-07 -1.05331e-08 -2.08586e-08 -4.02319e-08)
(4.85454e-08 1.2102e-06 3.1053e-07 -9.14051e-09 -2.03823e-08 -3.94049e-08)
(4.41611e-08 9.86425e-07 3.08106e-07 -5.42619e-09 -1.8557e-08 -3.87349e-08)
(3.65752e-08 6.49689e-07 2.4603e-07 8.46319e-10 -1.4479e-08 -3.74216e-08)
(2.54288e-08 1.93569e-07 8.83866e-08 8.16392e-09 -6.55528e-09 -3.35927e-08)
(1.30734e-08 -3.00353e-07 -1.66042e-07 9.47973e-09 3.70661e-09 -2.25532e-08)
(3.12124e-09 -4.84678e-07 -3.22654e-07 3.65889e-09 4.67936e-09 -6.78012e-09)
(-1.28368e-10 -2.32679e-07 -1.88052e-07 6.86156e-10 5.32064e-10 -5.57788e-10)
(1.9717e-10 -8.3303e-14 1.4001e-13 -9.85846e-11 9.85848e-11 -9.8585e-11)
(3.4535e-10 1.99304e-08 2.54984e-08 -3.15872e-10 1.20273e-10 -2.94779e-11)
(8.10338e-11 2.26525e-09 3.9048e-09 -8.1015e-11 1.28341e-11 -1.88199e-14)
(3.37418e-12 5.0196e-11 1.27052e-10 -3.38717e-12 2.39138e-14 1.29916e-14)
(1.99186e-14 1.47922e-13 6.55077e-13 -1.95753e-14 -3.71877e-15 -3.43301e-16)
(4.07177e-18 6.14344e-18 8.55074e-17 -3.94757e-18 -2.61782e-18 -1.24197e-19)
(8.6124e-09 7.51419e-09 -2.07258e-11 -5.6293e-12 6.5584e-10 -8.60677e-09)
(9.20273e-09 2.3265e-08 -5.53398e-11 -5.20402e-11 1.88835e-09 -9.15069e-09)
(9.66885e-09 3.94365e-08 -1.18564e-10 -1.45179e-10 2.95461e-09 -9.52367e-09)
(1.04012e-08 5.42708e-08 -1.95951e-10 -2.74827e-10 3.82944e-09 -1.01264e-08)
(1.13872e-08 6.72077e-08 -2.68177e-10 -4.28793e-10 4.49078e-09 -1.09584e-08)
(1.26217e-08 7.80392e-08 -3.17906e-10 -5.9458e-10 4.92506e-09 -1.20271e-08)
(1.40928e-08 8.64139e-08 -3.31223e-10 -7.57108e-10 5.13459e-09 -1.33357e-08)
(1.57812e-08 9.21315e-08 -3.01514e-10 -9.01408e-10 5.13576e-09 -1.48797e-08)
(1.76601e-08 9.51917e-08 -2.30895e-10 -1.015e-09 4.956e-09 -1.66451e-08)
(1.97013e-08 9.59534e-08 -1.29443e-10 -1.09151e-09 4.62811e-09 -1.86098e-08)
(2.18829e-08 9.51878e-08 -1.09781e-11 -1.133e-09 4.18256e-09 -2.07499e-08)
(2.42011e-08 9.39515e-08 1.12746e-10 -1.1487e-09 3.64166e-09 -2.30524e-08)
(2.66685e-08 9.35587e-08 2.36895e-10 -1.1535e-09 3.0186e-09 -2.5515e-08)
(2.93408e-08 9.64171e-08 3.70733e-10 -1.17611e-09 2.2979e-09 -2.81647e-08)
(3.23307e-08 1.04325e-07 5.35985e-10 -1.23446e-09 1.45895e-09 -3.10962e-08)
(3.5759e-08 1.19172e-07 7.66991e-10 -1.34153e-09 4.75277e-10 -3.44175e-08)
(3.98215e-08 1.4283e-07 1.1111e-09 -1.50127e-09 -6.84225e-10 -3.83202e-08)
(4.47334e-08 1.77303e-07 1.63639e-09 -1.70821e-09 -2.05352e-09 -4.30252e-08)
(5.08073e-08 2.24226e-07 2.43997e-09 -1.93963e-09 -3.65877e-09 -4.88677e-08)
(5.83646e-08 2.85772e-07 3.68073e-09 -2.16252e-09 -5.52938e-09 -5.62021e-08)
(6.78166e-08 3.62728e-07 5.58729e-09 -2.31541e-09 -7.66002e-09 -6.55012e-08)
(7.96401e-08 4.54568e-07 8.48523e-09 -2.31463e-09 -9.99552e-09 -7.73254e-08)
(9.44741e-08 5.62316e-07 1.28839e-08 -2.07226e-09 -1.2487e-08 -9.24019e-08)
(1.13006e-07 6.86295e-07 1.94931e-08 -1.47437e-09 -1.5024e-08 -1.11532e-07)
(1.36087e-07 8.28415e-07 2.93337e-08 -3.97282e-10 -1.74786e-08 -1.3569e-07)
(1.64919e-07 9.90654e-07 4.37845e-08 1.30405e-09 -1.96521e-08 -1.66223e-07)
(2.01139e-07 1.17764e-06 6.48053e-08 3.77857e-09 -2.1316e-08 -2.04918e-07)
(2.46995e-07 1.40112e-06 9.5523e-08 7.15495e-09 -2.23567e-08 -2.5415e-07)
(3.01949e-07 1.68298e-06 1.41424e-07 1.17167e-08 -2.32716e-08 -3.13666e-07)
(3.29037e-07 1.98e-06 2.04871e-07 1.70422e-08 -2.21896e-08 -3.4608e-07)
(3.4018e-07 2.29244e-06 2.91308e-07 2.30817e-08 -1.96052e-08 -3.63262e-07)
(3.53576e-07 2.64807e-06 4.11699e-07 2.98715e-08 -1.6382e-08 -3.83447e-07)
(3.71251e-07 3.04311e-06 5.76772e-07 3.69173e-08 -1.2375e-08 -4.08169e-07)
(3.94363e-07 3.44872e-06 7.94119e-07 4.32018e-08 -6.84603e-09 -4.37565e-07)
(4.23121e-07 3.80954e-06 1.06191e-06 4.69079e-08 1.61761e-09 -4.70029e-07)
(4.54376e-07 4.03403e-06 1.35601e-06 4.54033e-08 1.51121e-08 -4.99779e-07)
(4.78562e-07 3.989e-06 1.61037e-06 3.56282e-08 3.59853e-08 -5.14191e-07)
(4.7837e-07 3.53613e-06 1.70779e-06 1.53204e-08 6.39968e-08 -4.9369e-07)
(4.38774e-07 2.55192e-06 1.46978e-06 -1.46689e-08 9.74176e-08 -4.24105e-07)
(3.41529e-07 1.1469e-06 7.86227e-07 -5.01975e-08 1.21173e-07 -2.91331e-07)
(1.44581e-07 2.59808e-08 1.96564e-08 -4.68552e-08 6.85453e-08 -9.77258e-08)
(2.21362e-08 6.77444e-11 -6.79475e-11 -1.10681e-08 1.10681e-08 -1.10681e-08)
(-1.28376e-10 1.88052e-07 2.32679e-07 -5.57789e-10 5.32067e-10 6.86164e-10)
(-1.4538e-10 7.21724e-08 1.1443e-07 7.25664e-11 9.49664e-11 7.28133e-11)
(4.27758e-11 5.8179e-09 1.24368e-08 -4.30895e-11 -9.8052e-12 3.1375e-13)
(3.96434e-12 1.15516e-10 3.62046e-10 -3.72263e-12 -1.16572e-12 -2.41711e-13)
(3.32619e-14 3.44181e-13 1.88172e-12 -2.79098e-14 -1.27419e-14 -5.35214e-15)
(7.38943e-18 1.27571e-17 2.18512e-16 -6.22768e-18 -6.53928e-18 -1.16175e-18)
(4.04307e-08 1.41963e-08 1.58438e-10 -6.0512e-12 6.6084e-10 -4.04247e-08)
(3.96033e-08 3.95455e-08 7.6913e-11 -4.87928e-11 1.88374e-09 -3.95545e-08)
(3.85183e-08 6.33384e-08 -6.16691e-11 -1.26616e-10 2.96917e-09 -3.83917e-08)
(3.69049e-08 8.6951e-08 -2.36417e-10 -2.38897e-10 3.91519e-09 -3.6666e-08)
(3.48185e-08 1.07315e-07 -4.00039e-10 -3.70064e-10 4.6498e-09 -3.44485e-08)
(3.2317e-08 1.24039e-07 -5.14506e-10 -5.06987e-10 5.14828e-09 -3.181e-08)
(2.94773e-08 1.36562e-07 -5.50175e-10 -6.34025e-10 5.39466e-09 -2.88433e-08)
(2.63976e-08 1.44584e-07 -4.93649e-10 -7.35794e-10 5.39e-09 -2.56618e-08)
(2.31895e-08 1.48159e-07 -3.50434e-10 -8.00101e-10 5.15449e-09 -2.23894e-08)
(1.99652e-08 1.47921e-07 -1.42551e-10 -8.21306e-10 4.7268e-09 -1.91438e-08)
(1.68243e-08 1.45172e-07 1.00786e-10 -8.0208e-10 4.15916e-09 -1.60222e-08)
(1.3839e-08 1.4164e-07 3.55594e-10 -7.50866e-10 3.50711e-09 -1.30881e-08)
(1.10621e-08 1.39453e-07 6.13172e-10 -6.78906e-10 2.82651e-09 -1.03832e-08)
(8.52425e-09 1.42381e-07 8.94899e-10 -6.01938e-10 2.17595e-09 -7.92231e-09)
(6.21109e-09 1.53252e-07 1.24936e-09 -5.19447e-10 1.59452e-09 -5.69164e-09)
(4.12769e-09 1.75021e-07 1.75343e-09 -4.16512e-10 1.11908e-09 -3.71118e-09)
(2.27574e-09 2.10645e-07 2.51598e-09 -2.5845e-10 7.81422e-10 -2.01729e-09)
(7.08903e-10 2.63335e-07 3.69581e-09 1.2306e-11 6.15867e-10 -7.21209e-10)
(-4.6074e-10 3.35606e-07 5.51858e-09 4.81935e-10 6.54604e-10 -2.11945e-11)
(-9.96719e-10 4.30343e-07 8.33573e-09 1.26443e-09 9.42299e-10 -2.67714e-10)
(-5.0194e-10 5.49336e-07 1.26666e-08 2.50188e-09 1.53204e-09 -1.99994e-09)
(1.6375e-09 6.93586e-07 1.92726e-08 4.35758e-09 2.50621e-09 -5.99508e-09)
(6.35204e-09 8.65793e-07 2.93129e-08 7.02604e-09 3.97163e-09 -1.33781e-08)
(1.49255e-08 1.06765e-06 4.44005e-08 1.0724e-08 6.10986e-09 -2.56495e-08)
(2.90644e-08 1.30484e-06 6.69415e-08 1.57049e-08 9.14765e-09 -4.47693e-08)
(5.11194e-08 1.5843e-06 1.00335e-07 2.22373e-08 1.33721e-08 -7.33568e-08)
(8.40198e-08 1.9164e-06 1.49486e-07 3.05739e-08 1.90414e-08 -1.14594e-07)
(1.31258e-07 2.31279e-06 2.21265e-07 4.07484e-08 2.62044e-08 -1.72007e-07)
(1.97608e-07 2.69777e-06 3.14768e-07 5.09465e-08 3.60223e-08 -2.48555e-07)
(2.80596e-07 3.12779e-06 4.43249e-07 6.22611e-08 4.82144e-08 -3.42857e-07)
(3.79674e-07 3.76891e-06 6.47106e-07 7.92123e-08 5.97021e-08 -4.58886e-07)
(4.99139e-07 4.59649e-06 9.53138e-07 1.01268e-07 7.12965e-08 -6.00408e-07)
(6.37973e-07 5.52782e-06 1.37928e-06 1.24983e-07 8.48792e-08 -7.62956e-07)
(7.86386e-07 6.46313e-06 1.9332e-06 1.45248e-07 1.02263e-07 -9.31633e-07)
(9.25641e-07 7.23315e-06 2.58375e-06 1.54222e-07 1.26853e-07 -1.07986e-06)
(1.03057e-06 7.60488e-06 3.23209e-06 1.42744e-07 1.63258e-07 -1.17331e-06)
(1.07909e-06 7.33555e-06 3.69673e-06 1.03114e-07 2.15154e-07 -1.18221e-06)
(1.06365e-06 6.30264e-06 3.75619e-06 3.01015e-08 2.78453e-07 -1.09375e-06)
(1.01417e-06 4.46163e-06 3.13757e-06 -8.36537e-08 3.51693e-07 -9.30521e-07)
(1.05186e-06 1.92533e-06 1.58625e-06 -2.88788e-07 4.78933e-07 -7.63073e-07)
(7.06187e-07 9.05028e-09 -9.05478e-09 -3.53094e-07 3.53094e-07 -3.53093e-07)
(1.44581e-07 -1.96574e-08 -2.59821e-08 -9.77258e-08 6.85452e-08 -4.6855e-08)
(3.12121e-09 3.22654e-07 4.84678e-07 -6.78013e-09 4.67936e-09 3.65892e-09)
(-1.20522e-09 1.16021e-07 2.24198e-07 3.16254e-10 1.22811e-09 8.88971e-10)
(-4.88441e-11 8.96862e-09 2.34023e-08 4.67025e-11 1.09275e-10 2.14155e-12)
(7.83689e-13 1.7636e-10 6.73826e-10 -4.97645e-14 -1.40985e-13 -7.33925e-13)
(2.52431e-14 5.39907e-13 3.58818e-12 -9.46622e-15 -1.1834e-14 -1.57768e-14)