/*--------------------------------*- C++ -*----------------------------------*\
| =========                 |                                                 |
| \\      /  F ield         | OpenFOAM: The Open Source CFD Toolbox           |
|  \\    /   O peration     | Version:  2412                                  |
|   \\  /    A nd           | Website:  www.openfoam.com                      |
|    \\/     M anipulation  |                                                 |
\*---------------------------------------------------------------------------*/
FoamFile
{
    version     2.0;
    format      ascii;
    arch        "LSB;label=32;scalar=64";
    class       volSymmTensorField;
    location    "1830";
    object      Tij9;
}
// * * * * * * * * * * * * * * * * * * * * * * * * * * * * * * * * * * * * * //

dimensions      [0 0 0 0 0 0 0];

internalField   nonuniform List<symmTensor> 
2304
(
(-5.85783e-11 2.73949e-13 -2.17212e-13 1.17157e-10 -4.63667e-15 -5.8579e-11)
(-5.8791e-11 8.08237e-13 -2.16938e-13 1.17586e-10 -1.35459e-14 -5.87949e-11)
(-5.91818e-11 1.31505e-12 -2.15837e-13 1.18374e-10 -2.15137e-14 -5.91918e-11)
(-5.97108e-11 1.79208e-12 -2.13994e-13 1.1944e-10 -2.78465e-14 -5.9729e-11)
(-6.03239e-11 2.23619e-12 -2.11569e-13 1.20676e-10 -3.18079e-14 -6.03518e-11)
(-6.09643e-11 2.6449e-12 -2.08543e-13 1.21967e-10 -3.29153e-14 -6.10027e-11)
(-6.1574e-11 3.01547e-12 -2.05043e-13 1.23197e-10 -3.08374e-14 -6.16234e-11)
(-6.20995e-11 3.34605e-12 -2.01161e-13 1.24259e-10 -2.5486e-14 -6.21597e-11)
(-6.24949e-11 3.63557e-12 -1.97069e-13 1.2506e-10 -1.70579e-14 -6.25655e-11)
(-6.27265e-11 3.88439e-12 -1.92912e-13 1.25533e-10 -6.05638e-15 -6.28068e-11)
(-6.2775e-11 4.09417e-12 -1.8883e-13 1.25639e-10 6.77429e-15 -6.28641e-11)
(-6.26365e-11 4.26779e-12 -1.84897e-13 1.2537e-10 2.05485e-14 -6.27335e-11)
(-6.23206e-11 4.40877e-12 -1.81112e-13 1.24745e-10 3.43532e-14 -6.24246e-11)
(-6.18481e-11 4.52119e-12 -1.77428e-13 1.23806e-10 4.73526e-14 -6.19583e-11)
(-6.12477e-11 4.60851e-12 -1.73547e-13 1.22611e-10 5.90341e-14 -6.13633e-11)
(-6.05477e-11 4.67334e-12 -1.69313e-13 1.21216e-10 6.92253e-14 -6.06679e-11)
(-5.97749e-11 4.71713e-12 -1.64311e-13 1.19674e-10 7.80966e-14 -5.98989e-11)
(-5.89482e-11 4.73992e-12 -1.58302e-13 1.18023e-10 8.61838e-14 -5.90751e-11)
(-5.80783e-11 4.74028e-12 -1.50791e-13 1.16286e-10 9.43909e-14 -5.82072e-11)
(-5.71637e-11 4.71529e-12 -1.41573e-13 1.14457e-10 1.03961e-13 -5.72932e-11)
(-5.61911e-11 4.66115e-12 -1.30353e-13 1.12511e-10 1.16441e-13 -5.63198e-11)
(-5.51337e-11 4.57336e-12 -1.17079e-13 1.10394e-10 1.33579e-13 -5.52599e-11)
(-5.39546e-11 4.44724e-12 -1.0155e-13 1.08031e-10 1.57068e-13 -5.40765e-11)
(-5.26087e-11 4.27846e-12 -8.39808e-14 1.05333e-10 1.88466e-13 -5.27243e-11)
(-5.1047e-11 4.06443e-12 -6.48937e-14 1.02201e-10 2.28899e-13 -5.11544e-11)
(-4.92223e-11 3.80515e-12 -4.51855e-14 9.8542e-11 2.78688e-13 -4.93197e-11)
(-4.70962e-11 3.50451e-12 -2.62136e-14 9.42784e-11 3.3672e-13 -4.71822e-11)
(-4.46505e-11 3.17052e-12 -8.88804e-15 8.93748e-11 4.00196e-13 -4.47243e-11)
(-4.18943e-11 2.81425e-12 7.77001e-15 8.38498e-11 4.66066e-13 -4.19555e-11)
(-3.88534e-11 2.43862e-12 3.01736e-14 7.77553e-11 5.34782e-13 -3.89019e-11)
(-3.55333e-11 2.04359e-12 5.45679e-14 7.11023e-11 6.07365e-13 -3.5569e-11)
(-3.1948e-11 1.6397e-12 7.64014e-14 6.39193e-11 6.80563e-13 -3.19713e-11)
(-2.81394e-11 1.24308e-12 9.35266e-14 5.62905e-11 7.48726e-13 -2.81511e-11)
(-2.41766e-11 8.71902e-13 1.03802e-13 4.83549e-11 8.04864e-13 -2.41783e-11)
(-2.01585e-11 5.45446e-13 1.04886e-13 4.03103e-11 8.40278e-13 -2.01519e-11)
(-1.62147e-11 2.81772e-13 9.51872e-14 3.24164e-11 8.45295e-13 -1.62018e-11)
(-1.24994e-11 9.3494e-14 7.52266e-14 2.49817e-11 8.11813e-13 -1.24822e-11)
(-9.17213e-12 -1.70942e-14 4.86474e-14 1.83246e-11 7.37155e-13 -9.15246e-12)
(-6.36592e-12 -6.08546e-14 2.1872e-14 1.27114e-11 6.27392e-13 -6.3455e-12)
(-4.1548e-12 -5.95505e-14 1.67983e-15 8.29e-12 4.97446e-13 -4.1352e-12)
(-2.53525e-12 -3.86791e-14 -7.8156e-15 5.05301e-12 3.66558e-13 -2.51775e-12)
(-1.434e-12 -1.82144e-14 -7.92417e-15 2.85341e-12 2.50946e-13 -1.41941e-12)
(-7.39495e-13 -6.23975e-15 -4.42988e-15 1.46758e-12 1.58863e-13 -7.28086e-13)
(-3.36946e-13 -1.4749e-15 -1.63972e-15 6.65561e-13 9.1412e-14 -3.28615e-13)
(-1.27991e-13 -1.99556e-16 -3.96297e-16 2.50398e-13 4.59688e-14 -1.22407e-13)
(-3.60974e-14 -5.38944e-18 -5.17157e-17 6.89083e-14 1.85767e-14 -3.28109e-14)
(-5.78712e-15 1.11804e-18 -2.11922e-18 1.00496e-14 4.91383e-15 -4.26244e-15)
(-3.00237e-16 2.8976e-20 -2.8966e-20 1.50118e-16 4.50355e-16 1.50119e-16)
(-6.84889e-08 2.86194e-10 2.18222e-10 1.36978e-07 -1.81816e-11 -6.84895e-08)
(-6.87364e-08 8.44488e-10 2.27499e-10 1.37476e-07 -5.31824e-11 -6.87401e-08)
(-6.91912e-08 1.37426e-09 2.36376e-10 1.38392e-07 -8.46164e-11 -6.92005e-08)
(-6.98067e-08 1.87353e-09 2.49524e-10 1.3963e-07 -1.09971e-10 -6.98237e-08)
(-7.05202e-08 2.33929e-09 2.65786e-10 1.41066e-07 -1.26584e-10 -7.05463e-08)
(-7.12654e-08 2.76899e-09 2.84071e-10 1.42567e-07 -1.32702e-10 -7.13015e-08)
(-7.19752e-08 3.15968e-09 3.03061e-10 1.43997e-07 -1.27124e-10 -7.20218e-08)
(-7.25874e-08 3.5091e-09 3.21475e-10 1.45232e-07 -1.09524e-10 -7.26443e-08)
(-7.30486e-08 3.81572e-09 3.38028e-10 1.46164e-07 -8.06076e-11 -7.31155e-08)
(-7.33197e-08 4.07936e-09 3.51665e-10 1.46715e-07 -4.21875e-11 -7.33958e-08)
(-7.3378e-08 4.3011e-09 3.61632e-10 1.46841e-07 3.04982e-12 -7.34626e-08)
(-7.32189e-08 4.48334e-09 3.67628e-10 1.4653e-07 5.1906e-11 -7.33109e-08)
(-7.28533e-08 4.62927e-09 3.69778e-10 1.45805e-07 1.01081e-10 -7.29519e-08)
(-7.23054e-08 4.74272e-09 3.68632e-10 1.44715e-07 1.47548e-10 -7.24095e-08)
(-7.16081e-08 4.82722e-09 3.65389e-10 1.43325e-07 1.89455e-10 -7.17169e-08)
(-7.07944e-08 4.88558e-09 3.61113e-10 1.41701e-07 2.26169e-10 -7.0907e-08)
(-6.98952e-08 4.91968e-09 3.57283e-10 1.39906e-07 2.58306e-10 -7.00108e-08)
(-6.89327e-08 4.93008e-09 3.55037e-10 1.37983e-07 2.87792e-10 -6.90503e-08)
(-6.79196e-08 4.9161e-09 3.55768e-10 1.35958e-07 3.17901e-10 -6.80382e-08)
(-6.6854e-08 4.87568e-09 3.60195e-10 1.33826e-07 3.531e-10 -6.69724e-08)
(-6.57197e-08 4.80573e-09 3.68911e-10 1.31556e-07 3.98973e-10 -6.58366e-08)
(-6.44809e-08 4.70213e-09 3.81746e-10 1.29076e-07 4.61801e-10 -6.45947e-08)
(-6.30999e-08 4.56145e-09 3.98444e-10 1.26309e-07 5.47725e-10 -6.3209e-08)
(-6.15252e-08 4.38028e-09 4.17763e-10 1.23153e-07 6.62337e-10 -6.16276e-08)
(-5.97003e-08 4.15667e-09 4.37652e-10 1.19494e-07 8.0969e-10 -5.97941e-08)
(-5.75709e-08 3.89074e-09 4.55237e-10 1.15225e-07 9.90972e-10 -5.7654e-08)
(-5.50921e-08 3.58561e-09 4.66886e-10 1.10254e-07 1.20225e-09 -5.51624e-08)
(-5.22413e-08 3.24792e-09 4.7023e-10 1.04538e-07 1.43344e-09 -5.22969e-08)
(-4.90277e-08 2.88772e-09 4.68664e-10 9.80946e-08 1.67337e-09 -4.90669e-08)
(-4.54831e-08 2.51081e-09 4.75013e-10 9.0987e-08 1.92389e-09 -4.55039e-08)
(-4.16138e-08 2.12067e-09 4.82686e-10 8.32271e-08 2.18852e-09 -4.16133e-08)
(-3.74366e-08 1.72752e-09 4.82366e-10 7.48483e-08 2.45537e-09 -3.74116e-08)
(-3.30014e-08 1.34503e-09 4.70106e-10 6.59494e-08 2.70426e-09 -3.2948e-08)
(-2.83882e-08 9.87961e-10 4.42574e-10 5.66906e-08 2.91034e-09 -2.83024e-08)
(-2.37098e-08 6.71493e-10 3.96362e-10 4.72978e-08 3.04257e-09 -2.3588e-08)
(-1.91133e-08 4.09551e-10 3.30066e-10 3.8067e-08 3.06602e-09 -1.89537e-08)
(-1.47737e-08 2.11985e-10 2.47075e-10 2.93525e-08 2.95068e-09 -1.45788e-08)
(-1.08738e-08 8.13456e-11 1.57255e-10 2.15261e-08 2.68526e-09 -1.06522e-08)
(-7.56983e-09 1.0787e-11 7.55225e-11 1.49067e-08 2.28971e-09 -7.33684e-09)
(-4.95412e-09 -1.48043e-11 1.62991e-11 9.68273e-09 1.81703e-09 -4.72861e-09)
(-3.02972e-09 -1.49334e-11 -1.29164e-11 5.85824e-09 1.33741e-09 -2.82853e-09)
(-1.72184e-09 -7.55234e-12 -1.69389e-11 3.27648e-09 9.14405e-10 -1.55464e-09)
(-8.98545e-10 -2.20665e-12 -1.03257e-11 1.66628e-09 5.79332e-10 -7.67734e-10)
(-4.20697e-10 -1.89128e-13 -4.12496e-12 7.44997e-10 3.3524e-10 -3.243e-10)
(-1.69235e-10 1.48381e-13 -1.11484e-12 2.72733e-10 1.70455e-10 -1.03498e-10)
(-5.13309e-11 6.88239e-14 -1.72218e-13 6.52827e-11 6.60222e-11 -1.39518e-11)
(-5.24142e-12 5.60501e-15 -5.60495e-15 2.62071e-12 7.86214e-12 2.62071e-12)
(-5.78711e-15 2.11944e-18 -1.11791e-18 -4.26244e-15 4.91383e-15 1.00495e-14)
(-4.71978e-06 1.71936e-08 3.08964e-08 9.43964e-06 -2.16557e-09 -4.71986e-06)
(-4.73507e-06 5.06985e-08 3.15345e-08 9.47039e-06 -6.32925e-09 -4.73532e-06)
(-4.76312e-06 8.24556e-08 3.22404e-08 9.52678e-06 -1.00585e-08 -4.76366e-06)
(-4.80096e-06 1.12391e-07 3.32969e-08 9.60287e-06 -1.30519e-08 -4.8019e-06)
(-4.8447e-06 1.4033e-07 3.46284e-08 9.69082e-06 -1.49947e-08 -4.84612e-06)
(-4.89021e-06 1.66129e-07 3.61611e-08 9.78238e-06 -1.56831e-08 -4.89216e-06)
(-4.93338e-06 1.89621e-07 3.78077e-08 9.86928e-06 -1.49817e-08 -4.93589e-06)
(-4.97042e-06 2.10672e-07 3.94796e-08 9.9439e-06 -1.28587e-08 -4.97349e-06)
(-4.99809e-06 2.29182e-07 4.10852e-08 9.99979e-06 -9.40327e-09 -5.0017e-06)
(-5.01405e-06 2.45119e-07 4.25448e-08 1.00322e-05 -4.83205e-09 -5.01816e-06)
(-5.01696e-06 2.58521e-07 4.37972e-08 1.00385e-05 5.38489e-10 -5.02153e-06)
(-5.00653e-06 2.69492e-07 4.48123e-08 1.0018e-05 6.33476e-09 -5.01149e-06)
(-4.9834e-06 2.78189e-07 4.55902e-08 9.97211e-06 1.21726e-08 -4.98871e-06)
(-4.949e-06 2.84806e-07 4.61655e-08 9.90358e-06 1.76998e-08 -4.95458e-06)
(-4.90523e-06 2.89533e-07 4.66282e-08 9.81626e-06 2.27018e-08 -4.91103e-06)
(-4.85401e-06 2.92534e-07 4.70614e-08 9.71399e-06 2.71059e-08 -4.85998e-06)
(-4.79711e-06 2.93932e-07 4.75864e-08 9.6003e-06 3.09861e-08 -4.8032e-06)
(-4.73577e-06 2.93795e-07 4.83027e-08 9.47769e-06 3.45709e-08 -4.74192e-06)
(-4.67064e-06 2.92128e-07 4.93328e-08 9.34744e-06 3.8248e-08 -4.6768e-06)
(-4.60153e-06 2.88887e-07 5.07468e-08 9.20915e-06 4.25451e-08 -4.60763e-06)
(-4.52786e-06 2.83992e-07 5.2593e-08 9.06169e-06 4.81338e-08 -4.53383e-06)
(-4.44851e-06 2.77344e-07 5.48724e-08 8.90277e-06 5.5784e-08 -4.45426e-06)
(-4.35988e-06 2.68743e-07 5.75568e-08 8.7252e-06 6.62251e-08 -4.36532e-06)
(-4.25871e-06 2.58065e-07 6.05247e-08 8.52241e-06 8.01419e-08 -4.2637e-06)
(-4.14144e-06 2.45242e-07 6.35744e-08 8.28727e-06 9.80532e-08 -4.14583e-06)
(-4.00455e-06 2.30267e-07 6.64214e-08 8.01267e-06 1.20165e-07 -4.00812e-06)
(-3.84496e-06 2.13227e-07 6.86899e-08 7.69242e-06 1.46112e-07 -3.84746e-06)
(-3.66076e-06 1.94356e-07 7.00561e-08 7.32262e-06 1.74805e-07 -3.66186e-06)
(-3.45187e-06 1.74186e-07 7.06349e-08 6.90309e-06 2.04976e-07 -3.45122e-06)
(-3.21997e-06 1.53215e-07 7.13751e-08 6.4371e-06 2.36891e-07 -3.21712e-06)
(-2.96507e-06 1.31813e-07 7.16903e-08 5.92442e-06 2.7102e-07 -2.95935e-06)
(-2.68789e-06 1.10501e-07 7.07522e-08 5.3663e-06 3.06021e-07 -2.67841e-06)
(-2.39124e-06 8.98322e-08 6.81878e-08 4.76816e-06 3.39571e-07 -2.37692e-06)
(-2.07981e-06 7.03267e-08 6.36748e-08 4.13921e-06 3.68738e-07 -2.0594e-06)
(-1.76033e-06 5.24984e-08 5.69051e-08 3.4929e-06 3.89684e-07 -1.73257e-06)
(-1.44186e-06 3.6844e-08 4.77953e-08 2.84768e-06 3.97813e-07 -1.40582e-06)
(-1.13563e-06 2.381e-08 3.6756e-08 2.22689e-06 3.88717e-07 -1.09126e-06)
(-8.54084e-07 1.3736e-08 2.48642e-08 1.65691e-06 3.59882e-07 -8.02826e-07)
(-6.08991e-07 6.75334e-09 1.37541e-08 1.16299e-06 3.12542e-07 -5.54e-07)
(-4.09047e-07 2.7069e-09 5.10252e-09 7.63727e-07 2.52588e-07 -3.54681e-07)
(-2.57981e-07 9.89003e-10 5.73089e-11 4.66352e-07 1.89581e-07 -2.08371e-07)
(-1.51823e-07 4.96028e-10 -1.49578e-09 2.61565e-07 1.31908e-07 -1.09742e-07)
(-8.25104e-08 3.35591e-10 -1.16557e-09 1.31595e-07 8.46071e-08 -4.90846e-08)
(-4.01212e-08 1.99205e-10 -5.19501e-10 5.58027e-08 4.84218e-08 -1.56815e-08)
(-1.52977e-08 7.96774e-11 -1.37691e-10 1.61057e-08 2.13318e-08 -8.08078e-10)
(-2.63362e-09 1.22702e-11 -1.22702e-11 1.31681e-09 3.95046e-09 1.31681e-09)
(-5.13308e-11 1.72218e-13 -6.88236e-14 -1.39518e-11 6.60221e-11 6.52826e-11)
(-3.60973e-14 5.17168e-17 5.38994e-18 -3.28109e-14 1.85767e-14 6.89082e-14)
(-5.64655e-05 1.72649e-07 -1.18966e-06 0.000112939 -3.64819e-08 -5.6474e-05)
(-5.66033e-05 5.08884e-07 -1.19644e-06 0.000113217 -1.06406e-07 -5.66132e-05)
(-5.68552e-05 8.27035e-07 -1.19659e-06 0.000113723 -1.68525e-07 -5.68674e-05)
(-5.71939e-05 1.12654e-06 -1.19579e-06 0.000114403 -2.17481e-07 -5.72094e-05)
(-5.75841e-05 1.40599e-06 -1.19334e-06 0.000115188 -2.47825e-07 -5.76034e-05)
(-5.7989e-05 1.66418e-06 -1.18839e-06 0.000116002 -2.5616e-07 -5.80127e-05)
(-5.83726e-05 1.89978e-06 -1.18022e-06 0.000116774 -2.40363e-07 -5.84009e-05)
(-5.8702e-05 2.11162e-06 -1.16835e-06 0.000117437 -2.00111e-07 -5.87349e-05)
(-5.89499e-05 2.29882e-06 -1.15258e-06 0.000117937 -1.37116e-07 -5.89871e-05)
(-5.90963e-05 2.46094e-06 -1.13297e-06 0.000118234 -5.51814e-08 -5.91377e-05)
(-5.913e-05 2.59807e-06 -1.10971e-06 0.000118305 4.02902e-08 -5.9175e-05)
(-5.90486e-05 2.71083e-06 -1.08306e-06 0.000118145 1.43016e-07 -5.90965e-05)
(-5.88568e-05 2.80025e-06 -1.05321e-06 0.000117764 2.46575e-07 -5.89071e-05)
(-5.85659e-05 2.86777e-06 -1.02016e-06 0.000117184 3.45104e-07 -5.86179e-05)
(-5.81909e-05 2.91492e-06 -9.83359e-07 0.000116435 4.35058e-07 -5.8244e-05)
(-5.77467e-05 2.94319e-06 -9.42285e-07 0.000115547 5.15303e-07 -5.78003e-05)
(-5.7247e-05 2.95389e-06 -8.95824e-07 0.000114547 5.87223e-07 -5.73004e-05)
(-5.67008e-05 2.94809e-06 -8.42914e-07 0.000113454 6.54906e-07 -5.67535e-05)
(-5.61119e-05 2.92657e-06 -7.81972e-07 0.000112275 7.25285e-07 -5.61632e-05)
(-5.54772e-05 2.88994e-06 -7.11823e-07 0.000111004 8.07864e-07 -5.55265e-05)
(-5.4794e-05 2.83865e-06 -6.31475e-07 0.000109634 9.14844e-07 -5.48404e-05)
(-5.40524e-05 2.77266e-06 -5.40217e-07 0.000108147 1.06017e-06 -5.40947e-05)
(-5.32157e-05 2.69116e-06 -4.37072e-07 0.000106468 1.25746e-06 -5.32524e-05)
(-5.22527e-05 2.59411e-06 -3.22404e-07 0.000104534 1.52006e-06 -5.22815e-05)
(-5.11288e-05 2.48147e-06 -1.97591e-07 0.000102275 1.859e-06 -5.11467e-05)
(-4.98086e-05 2.35301e-06 -6.51253e-08 9.96196e-05 2.28085e-06 -4.98109e-05)
(-4.82578e-05 2.20807e-06 7.07722e-08 9.64958e-05 2.78364e-06 -4.8238e-05)
(-4.64474e-05 2.04613e-06 2.04627e-07 9.28444e-05 3.35397e-06 -4.6397e-05)
(-4.43603e-05 1.87023e-06 3.32183e-07 8.8629e-05 3.97458e-06 -4.42687e-05)
(-4.19951e-05 1.68814e-06 4.56473e-07 8.38425e-05 4.65278e-06 -4.18474e-05)
(-3.93398e-05 1.5081e-06 5.71983e-07 7.84543e-05 5.4002e-06 -3.91145e-05)
(-3.63893e-05 1.3341e-06 6.70623e-07 7.24463e-05 6.19876e-06 -3.60569e-05)
(-3.31557e-05 1.16701e-06 7.46134e-07 6.58342e-05 7.0127e-06 -3.26785e-05)
(-2.96674e-05 1.00589e-06 7.90608e-07 5.86662e-05 7.79214e-06 -2.89988e-05)
(-2.59729e-05 8.48457e-07 7.94933e-07 5.10334e-05 8.46363e-06 -2.50605e-05)
(-2.21463e-05 6.91933e-07 7.51763e-07 4.30871e-05 8.92703e-06 -2.09409e-05)
(-1.82904e-05 5.34963e-07 6.59098e-07 3.50536e-05 9.06604e-06 -1.67632e-05)
(-1.45352e-05 3.80622e-07 5.23274e-07 2.72364e-05 8.77635e-06 -1.27012e-05)
(-1.10287e-05 2.38572e-07 3.60193e-07 1.99961e-05 8.00893e-06 -8.96741e-06)
(-7.9214e-06 1.26344e-07 1.93069e-07 1.36986e-05 6.81334e-06 -5.77715e-06)
(-5.34448e-06 5.9494e-08 5.71267e-08 8.6364e-06 5.35825e-06 -3.29192e-06)
(-3.34151e-06 2.99107e-08 -1.20586e-08 4.88332e-06 3.8478e-06 -1.54181e-06)
(-1.86888e-06 1.70635e-08 -2.28957e-08 2.32587e-06 2.43383e-06 -4.56996e-07)
(-8.32807e-07 8.37581e-09 -1.1325e-08 7.78126e-07 1.19578e-06 5.46809e-08)
(-2.10113e-07 2.13626e-09 -2.13626e-09 1.05056e-07 3.15184e-07 1.05057e-07)
(-1.52976e-08 1.37691e-10 -7.96773e-11 -8.08089e-10 2.13318e-08 1.61057e-08)
(-1.69235e-10 1.11484e-12 -1.48381e-13 -1.03498e-10 1.70455e-10 2.72732e-10)
(-1.27991e-13 3.96299e-16 1.99557e-16 -1.22407e-13 4.59687e-14 2.50397e-13)
(-0.000197968 4.8213e-07 -7.66289e-06 0.000396035 -1.79476e-07 -0.000198067)
(-0.000198271 1.42371e-06 -7.66891e-06 0.000396644 -5.2273e-07 -0.000198373)
(-0.000198824 2.31497e-06 -7.60914e-06 0.000397753 -8.25836e-07 -0.000198929)
(-0.000199565 3.15208e-06 -7.52487e-06 0.00039924 -1.06265e-06 -0.000199674)
(-0.000200418 3.93367e-06 -7.42021e-06 0.000400951 -1.20725e-06 -0.000200533)
(-0.000201304 4.65685e-06 -7.29872e-06 0.00040273 -1.24409e-06 -0.000201426)
(-0.000202149 5.31829e-06 -7.16446e-06 0.000404428 -1.16416e-06 -0.000202279)
(-0.000202887 5.9147e-06 -7.02182e-06 0.000405911 -9.67054e-07 -0.000203024)
(-0.000203462 6.4432e-06 -6.87533e-06 0.00040707 -6.61718e-07 -0.000203607)
(-0.000203837 6.90173e-06 -6.72903e-06 0.000407827 -2.66394e-07 -0.000203989)
(-0.00020399 7.28939e-06 -6.58595e-06 0.000408138 1.93748e-07 -0.000204148)
(-0.000203915 7.60643e-06 -6.44748e-06 0.000407993 6.89971e-07 -0.000204077)
(-0.000203622 7.85425e-06 -6.31344e-06 0.000407407 1.19322e-06 -0.000203785)
(-0.000203128 8.03549e-06 -6.18173e-06 0.000406419 1.67725e-06 -0.000203292)
(-0.000202459 8.15354e-06 -6.04721e-06 0.000405081 2.12656e-06 -0.000202621)
(-0.000201641 8.21239e-06 -5.90502e-06 0.00040344 2.53698e-06 -0.000201799)
(-0.000200694 8.21629e-06 -5.74819e-06 0.00040154 2.91637e-06 -0.000200847)
(-0.000199629 8.16973e-06 -5.57089e-06 0.000399402 3.28575e-06 -0.000199774)
(-0.000198446 8.0772e-06 -5.36614e-06 0.000397026 3.6804e-06 -0.000198581)
(-0.000197131 7.94381e-06 -5.12903e-06 0.000394384 4.14922e-06 -0.000197253)
(-0.000195684 7.77442e-06 -4.85136e-06 0.000391473 4.75354e-06 -0.000195789)
(-0.000194073 7.57219e-06 -4.53337e-06 0.000388227 5.56294e-06 -0.000194154)
(-0.000192211 7.33988e-06 -4.17619e-06 0.000384469 6.64959e-06 -0.000192258)
(-0.000190025 7.08156e-06 -3.78315e-06 0.000380048 8.08709e-06 -0.000190023)
(-0.000187432 6.80072e-06 -3.3597e-06 0.000374792 9.94116e-06 -0.000187359)
(-0.000184348 6.49831e-06 -2.91211e-06 0.000368517 1.22625e-05 -0.000184168)
(-0.000180681 6.17029e-06 -2.44981e-06 0.000361024 1.5072e-05 -0.000180343)
(-0.000176336 5.80382e-06 -1.98643e-06 0.000352106 1.83516e-05 -0.00017577)
(-0.000171216 5.37835e-06 -1.53143e-06 0.000341544 2.20723e-05 -0.000170328)
(-0.000165202 4.93509e-06 -9.23563e-07 0.000329059 2.62874e-05 -0.000163857)
(-0.000158241 4.56402e-06 -2.72356e-07 0.000314486 3.1078e-05 -0.000156244)
(-0.000150301 4.28102e-06 3.25246e-07 0.000297684 3.64229e-05 -0.000147383)
(-0.000141356 4.06947e-06 8.50591e-07 0.00027851 4.22238e-05 -0.000137154)
(-0.000131407 3.90924e-06 1.28186e-06 0.000256853 4.83039e-05 -0.000125445)
(-0.000120493 3.76543e-06 1.60296e-06 0.000232675 5.43449e-05 -0.000112182)
(-0.000108691 3.58348e-06 1.81313e-06 0.000206064 5.98317e-05 -9.73722e-05)
(-9.61142e-05 3.29238e-06 1.92584e-06 0.000177286 6.40317e-05 -8.1172e-05)
(-8.28972e-05 2.82226e-06 1.94831e-06 0.000146867 6.60355e-05 -6.39694e-05)
(-6.91927e-05 2.13549e-06 1.84317e-06 0.000115656 6.48817e-05 -4.64638e-05)
(-5.51743e-05 1.32425e-06 1.46798e-06 8.48839e-05 5.97601e-05 -2.97096e-05)
(-4.11299e-05 6.61104e-07 7.62735e-07 5.62066e-05 5.03756e-05 -1.50768e-05)
(-2.74864e-05 2.94469e-07 1.30844e-07 3.15073e-05 3.72107e-05 -4.02097e-06)
(-1.49347e-05 1.44267e-07 -1.03492e-07 1.28767e-05 2.17401e-05 2.05801e-06)
(-5.28314e-06 6.20661e-08 -6.20661e-08 2.64157e-06 7.9252e-06 2.64157e-06)
(-8.32807e-07 1.1325e-08 -8.3758e-09 5.46801e-08 1.19578e-06 7.78126e-07)
(-4.01211e-08 5.195e-10 -1.99205e-10 -1.56815e-08 4.84217e-08 5.58026e-08)
(-4.20696e-10 4.12495e-12 1.89129e-13 -3.243e-10 3.3524e-10 7.44996e-10)
(-3.36945e-13 1.63973e-15 1.4749e-15 -3.28615e-13 9.14118e-14 6.6556e-13)
(-0.000332871 6.07672e-07 -9.43634e-07 0.000665743 -4.29411e-07 -0.000332872)
(-0.000333192 1.79859e-06 -8.23933e-07 0.000666387 -1.25006e-06 -0.000333195)
(-0.000333782 2.92756e-06 -6.25268e-07 0.000667569 -1.972e-06 -0.000333787)
(-0.000334571 3.98618e-06 -3.45292e-07 0.000669152 -2.5352e-06 -0.000334581)
(-0.000335484 4.97454e-06 -3.59966e-09 0.000670983 -2.8823e-06 -0.0003355)
(-0.000336444 5.88754e-06 3.80849e-07 0.000672915 -2.97961e-06 -0.00033647)
(-0.000337384 6.71911e-06 7.88727e-07 0.000674806 -2.80912e-06 -0.000337422)
(-0.000338244 7.46253e-06 1.20126e-06 0.000676538 -2.37217e-06 -0.000338294)
(-0.000338975 8.11169e-06 1.6013e-06 0.000678015 -1.69054e-06 -0.00033904)
(-0.000339547 8.66152e-06 1.97468e-06 0.000679171 -8.05492e-07 -0.000339624)
(-0.000339942 9.10878e-06 2.31153e-06 0.00067997 2.27646e-07 -0.000340028)
(-0.000340154 9.45206e-06 2.60745e-06 0.0006804 1.347e-06 -0.000340246)
(-0.000340189 9.69183e-06 2.86262e-06 0.000680472 2.49118e-06 -0.000340283)
(-0.000340059 9.83082e-06 3.08245e-06 0.00068021 3.60609e-06 -0.000340151)
(-0.000339779 9.87303e-06 3.27961e-06 0.000679642 4.66151e-06 -0.000339864)
(-0.000339358 9.8239e-06 3.46593e-06 0.000678792 5.65265e-06 -0.000339433)
(-0.000338803 9.68956e-06 3.65746e-06 0.000677669 6.602e-06 -0.000338866)
(-0.000338108 9.47689e-06 3.86665e-06 0.000676263 7.56216e-06 -0.000338155)
(-0.000337255 9.19234e-06 4.10767e-06 0.000674537 8.61855e-06 -0.000337282)
(-0.000336217 8.84247e-06 4.38894e-06 0.000672433 9.88816e-06 -0.000336217)
(-0.000335001 8.43461e-06 4.72798e-06 0.000669964 1.15141e-05 -0.000334963)
(-0.000333548 7.97504e-06 5.12084e-06 0.000667 1.36575e-05 -0.000333452)
(-0.000331765 7.46889e-06 5.55639e-06 0.000663345 1.64915e-05 -0.00033158)
(-0.000329575 6.92019e-06 6.02091e-06 0.000658823 2.01956e-05 -0.000329248)
(-0.000326894 6.33315e-06 6.49829e-06 0.00065324 2.4937e-05 -0.000326346)
(-0.000323642 5.70894e-06 6.97659e-06 0.000646389 3.08604e-05 -0.000322747)
(-0.00031973 5.04268e-06 7.44659e-06 0.000638034 3.80678e-05 -0.000318305)
(-0.000315058 4.31194e-06 7.90063e-06 0.000627903 4.66154e-05 -0.000312844)
(-0.00030952 3.43828e-06 8.26786e-06 0.00061567 5.66104e-05 -0.00030615)
(-0.000302993 2.56006e-06 8.40729e-06 0.000600933 6.82287e-05 -0.00029794)
(-0.000295384 1.90312e-06 8.37193e-06 0.000583285 8.1634e-05 -0.000287901)
(-0.000286661 1.48968e-06 8.22163e-06 0.000562356 9.694e-05 -0.000275695)
(-0.000276825 1.29394e-06 7.96541e-06 0.000537755 0.00011416 -0.000260931)
(-0.000265923 1.30667e-06 7.63551e-06 0.000509076 0.000133151 -0.000243153)
(-0.000254039 1.50673e-06 7.29316e-06 0.000475903 0.000153503 -0.000221864)
(-0.000241236 1.84767e-06 7.01377e-06 0.000437794 0.000174382 -0.000196558)
(-0.000227436 2.25111e-06 6.84821e-06 0.000394218 0.000194345 -0.000166782)
(-0.000212222 2.59238e-06 6.7725e-06 0.000344519 0.000211083 -0.000132297)
(-0.000194551 2.57547e-06 6.67585e-06 0.000287941 0.000221046 -9.33898e-05)
(-0.000172238 1.88712e-06 5.99716e-06 0.000223829 0.00021869 -5.15914e-05)
(-0.000141514 9.83284e-07 3.76426e-06 0.000152726 0.000195855 -1.12122e-05)
(-9.95364e-05 3.70846e-07 1.0607e-06 8.10946e-05 0.000145989 1.84418e-05)
(-5.12355e-05 1.74087e-07 -1.74088e-07 2.56177e-05 7.68537e-05 2.56178e-05)
(-1.49347e-05 1.03492e-07 -1.44267e-07 2.058e-06 2.17401e-05 1.28767e-05)
(-1.86887e-06 2.28956e-08 -1.70635e-08 -4.56997e-07 2.43383e-06 2.32587e-06)
(-8.25103e-08 1.16557e-09 -3.35591e-10 -4.90846e-08 8.46069e-08 1.31595e-07)
(-8.98544e-10 1.03257e-11 2.20665e-12 -7.67733e-10 5.79331e-10 1.66628e-09)
(-7.39494e-13 4.42988e-15 6.23974e-15 -7.28085e-13 1.58863e-13 1.46758e-12)
(-0.000384774 4.78922e-07 4.45713e-06 0.000769565 -6.74925e-07 -0.000384791)
(-0.000384772 1.41173e-06 4.59229e-06 0.00076956 -1.96267e-06 -0.000384789)
(-0.000384769 2.28965e-06 4.67904e-06 0.000769554 -3.0859e-06 -0.000384784)
(-0.000384765 3.10934e-06 4.81826e-06 0.000769546 -3.95009e-06 -0.00038478)
(-0.000384761 3.86572e-06 5.00693e-06 0.000769539 -4.47216e-06 -0.000384778)
(-0.000384755 4.55182e-06 5.24271e-06 0.000769534 -4.6053e-06 -0.000384779)
(-0.00038475 5.15992e-06 5.52139e-06 0.000769533 -4.32857e-06 -0.000384783)
(-0.000384744 5.68157e-06 5.83684e-06 0.000769534 -3.65039e-06 -0.00038479)
(-0.000384738 6.10918e-06 6.18119e-06 0.000769536 -2.60852e-06 -0.000384798)
(-0.000384733 6.43625e-06 6.54597e-06 0.000769538 -1.26708e-06 -0.000384805)
(-0.000384729 6.65825e-06 6.92352e-06 0.000769537 2.92109e-07 -0.000384809)
(-0.000384725 6.7724e-06 7.309e-06 0.000769533 1.98082e-06 -0.000384808)
(-0.000384722 6.77772e-06 7.69989e-06 0.000769524 3.7146e-06 -0.000384802)
(-0.00038472 6.6757e-06 8.09829e-06 0.000769511 5.4227e-06 -0.00038479)
(-0.000384719 6.46849e-06 8.51513e-06 0.000769494 7.07018e-06 -0.000384775)
(-0.000384718 6.1596e-06 8.96118e-06 0.000769474 8.6607e-06 -0.000384756)
(-0.000384717 5.75253e-06 9.45536e-06 0.00076945 1.02391e-05 -0.000384733)
(-0.000384716 5.25092e-06 1.00157e-05 0.00076942 1.18953e-05 -0.000384704)
(-0.000384713 4.65589e-06 1.06676e-05 0.000769379 1.37682e-05 -0.000384666)
(-0.000384708 3.9665e-06 1.14302e-05 0.00076932 1.60415e-05 -0.000384612)
(-0.000384699 3.18192e-06 1.23254e-05 0.000769229 1.89397e-05 -0.00038453)
(-0.000384686 2.30162e-06 1.33718e-05 0.000769087 2.2721e-05 -0.0003844)
(-0.000384667 1.31881e-06 1.45891e-05 0.00076886 2.76683e-05 -0.000384193)
(-0.000384641 2.20078e-07 1.59878e-05 0.000768501 3.40866e-05 -0.00038386)
(-0.000384605 -1.00857e-06 1.75767e-05 0.000767936 4.22827e-05 -0.00038333)
(-0.000384558 -2.38387e-06 1.93722e-05 0.000767057 5.25609e-05 -0.0003825)
(-0.000384494 -3.91953e-06 2.13957e-05 0.000765718 6.52092e-05 -0.000381223)
(-0.000384411 -5.61159e-06 2.36731e-05 0.000763714 8.05021e-05 -0.000379303)
(-0.000384309 -7.46805e-06 2.60829e-05 0.00076077 9.87796e-05 -0.000376461)
(-0.000380297 -9.27171e-06 2.69347e-05 0.000748737 0.000119354 -0.00036844)
(-0.000374021 -1.10213e-05 2.69276e-05 0.000730425 0.000142716 -0.000356404)
(-0.000367326 -1.2748e-05 2.68556e-05 0.000708836 0.000169563 -0.00034151)
(-0.00036047 -1.43879e-05 2.67542e-05 0.000683596 0.000200066 -0.000323127)
(-0.000353812 -1.5857e-05 2.66265e-05 0.000654274 0.00023429 -0.000300462)
(-0.000347739 -1.70236e-05 2.64702e-05 0.000620249 0.000272026 -0.00027251)
(-0.000342506 -1.76975e-05 2.62515e-05 0.000580504 0.00031254 -0.000237998)
(-0.000337935 -1.7632e-05 2.58845e-05 0.000533333 0.000354107 -0.000195398)
(-0.000332907 -1.65307e-05 2.52114e-05 0.000476089 0.000393167 -0.000143182)
(-0.000324562 -1.4479e-05 2.41179e-05 0.000405213 0.00042296 -8.06512e-05)
(-0.000307167 -1.22241e-05 2.13943e-05 0.000317161 0.000431467 -9.99356e-06)
(-0.000269118 -8.06125e-06 1.31509e-05 0.000210727 0.000396726 5.83912e-05)
(-0.000196356 -3.6112e-06 3.61119e-06 9.81782e-05 0.000294579 9.81783e-05)
(-9.95364e-05 -1.0607e-06 -3.70849e-07 1.84417e-05 0.000145989 8.10947e-05)
(-2.74863e-05 -1.30844e-07 -2.94469e-07 -4.02098e-06 3.72106e-05 3.15073e-05)
(-3.34151e-06 1.20586e-08 -2.99106e-08 -1.54181e-06 3.84779e-06 4.88332e-06)
(-1.51822e-07 1.49578e-09 -4.96028e-10 -1.09742e-07 1.31908e-07 2.61564e-07)
(-1.72184e-09 1.69389e-11 7.55233e-12 -1.55463e-09 9.14403e-10 3.27647e-09)
(-1.434e-12 7.92418e-15 1.82143e-14 -1.41941e-12 2.50946e-13 2.85341e-12)
(-0.000384723 2.5227e-07 -9.66032e-06 0.000769526 -8.82254e-07 -0.000384803)
(-0.000384724 7.36832e-07 -9.55634e-06 0.000769522 -2.56485e-06 -0.000384798)
(-0.000384726 1.18722e-06 -9.41583e-06 0.000769515 -4.02578e-06 -0.00038479)
(-0.000384728 1.60715e-06 -9.20303e-06 0.000769509 -5.14129e-06 -0.000384781)
(-0.000384732 1.98708e-06 -8.92167e-06 0.000769507 -5.80879e-06 -0.000384775)
(-0.000384736 2.31827e-06 -8.57426e-06 0.000769509 -5.96976e-06 -0.000384774)
(-0.000384741 2.59087e-06 -8.16527e-06 0.000769518 -5.60005e-06 -0.000384777)
(-0.000384746 2.7939e-06 -7.70176e-06 0.000769531 -4.71324e-06 -0.000384785)
(-0.000384752 2.91715e-06 -7.19317e-06 0.000769547 -3.35985e-06 -0.000384795)
(-0.000384758 2.95136e-06 -6.6499e-06 0.00076956 -1.62235e-06 -0.000384802)
(-0.000384764 2.88921e-06 -6.08152e-06 0.000769568 3.96412e-07 -0.000384804)
(-0.000384771 2.72487e-06 -5.49416e-06 0.000769569 2.58825e-06 -0.000384798)
(-0.000384777 2.45386e-06 -4.8914e-06 0.00076956 4.85299e-06 -0.000384783)
(-0.000384783 2.07409e-06 -4.27121e-06 0.000769542 7.1113e-06 -0.000384759)
(-0.000384789 1.5833e-06 -3.62042e-06 0.000769516 9.33045e-06 -0.000384727)
(-0.000384793 9.80106e-07 -2.9262e-06 0.00076948 1.1528e-05 -0.000384687)
(-0.000384797 2.62264e-07 -2.16497e-06 0.000769434 1.37742e-05 -0.000384637)
(-0.000384799 -5.72872e-07 -1.31381e-06 0.000769373 1.61961e-05 -0.000384574)
(-0.000384799 -1.53148e-06 -3.38781e-07 0.000769288 1.8979e-05 -0.00038449)
(-0.000384794 -2.62036e-06 7.86665e-07 0.000769164 2.23597e-05 -0.00038437)
(-0.000384785 -3.84812e-06 2.09697e-06 0.000768975 2.6626e-05 -0.00038419)
(-0.000384768 -5.22444e-06 3.61699e-06 0.000768683 3.21049e-05 -0.000383915)
(-0.000384741 -6.76383e-06 5.38203e-06 0.000768226 3.91461e-05 -0.000383485)
(-0.000384701 -8.48651e-06 7.41432e-06 0.000767514 4.81201e-05 -0.000382813)
(-0.000384641 -1.04094e-05 9.73138e-06 0.000766412 5.93959e-05 -0.000381771)
(-0.000384558 -1.25459e-05 1.23557e-05 0.000764733 7.33348e-05 -0.000380175)
(-0.000384445 -1.48911e-05 1.52906e-05 0.000762218 9.02776e-05 -0.000377773)
(-0.000384297 -1.73812e-05 1.8515e-05 0.000758524 0.000110539 -0.000374227)
(-0.000384116 -1.98688e-05 2.19776e-05 0.0007532 0.0001344 -0.000369084)
(-0.000383906 -2.25013e-05 2.54077e-05 0.000745603 0.000162346 -0.000361697)
(-0.000383658 -2.55486e-05 2.87386e-05 0.000734835 0.000194893 -0.000351177)
(-0.000383371 -2.88865e-05 3.19304e-05 0.00071979 0.000232193 -0.000336419)
(-0.000383061 -3.2228e-05 3.47577e-05 0.000699148 0.000274072 -0.000316087)
(-0.000382763 -3.52342e-05 3.68846e-05 0.00067141 0.000319943 -0.000288647)
(-0.000382529 -3.74902e-05 3.79915e-05 0.00063503 0.000368604 -0.000252501)
(-0.000382414 -3.85791e-05 3.79211e-05 0.000588611 0.00041816 -0.000206197)
(-0.000382452 -3.82349e-05 3.68466e-05 0.000531125 0.000466053 -0.000148674)
(-0.000382628 -3.63576e-05 3.53059e-05 0.00046213 0.0005092 -7.95022e-05)
(-0.000382845 -3.33673e-05 3.45451e-05 0.000382004 0.000544174 8.40598e-07)
(-0.000382903 -3.29514e-05 3.61834e-05 0.000291518 0.000567749 9.13844e-05)
(-0.000357657 -2.75448e-05 2.75448e-05 0.000178828 0.000537898 0.000178829)
(-0.000269118 -1.31509e-05 8.06123e-06 5.8391e-05 0.000396726 0.000210727)
(-0.000141514 -3.76426e-06 -9.8329e-07 -1.12123e-05 0.000195855 0.000152726)
(-4.11298e-05 -7.62735e-07 -6.61104e-07 -1.50768e-05 5.03755e-05 5.62066e-05)
(-5.34447e-06 -5.71268e-08 -5.9494e-08 -3.29192e-06 5.35824e-06 8.63639e-06)
(-2.5798e-07 -5.73124e-11 -9.89004e-10 -2.08371e-07 1.89581e-07 4.66351e-07)