/*--------------------------------*- C++ -*----------------------------------*\
| =========                 |                                                 |
| \\      /  F ield         | OpenFOAM: The Open Source CFD Toolbox           |
|  \\    /   O peration     | Version:  2412                                  |
|   \\  /    A nd           | Website:  www.openfoam.com                      |
|    \\/     M anipulation  |                                                 |
\*---------------------------------------------------------------------------*/
FoamFile
{
    version     2.0;
    format      ascii;
    arch        "LSB;label=32;scalar=64";
    class       volSymmTensorField;
    location    "1830";
    object      turbulenceProperties:R;
}
// * * * * * * * * * * * * * * * * * * * * * * * * * * * * * * * * * * * * * //

dimensions      [0 2 -2 0 0 0 0];

internalField   nonuniform List<symmTensor> 
2304
(
(1.02405e-05 -2.63402e-12 -9.40587e-08 1.02405e-05 1.46613e-10 1.02404e-05)
(1.02591e-05 -7.69095e-12 -9.4315e-08 1.02591e-05 4.32177e-10 1.02589e-05)
(1.02931e-05 -1.22048e-11 -9.47852e-08 1.02931e-05 7.01993e-10 1.02929e-05)
(1.03389e-05 -1.57975e-11 -9.54204e-08 1.03389e-05 9.54435e-10 1.03388e-05)
(1.03918e-05 -1.80803e-11 -9.61548e-08 1.03918e-05 1.1878e-09 1.03916e-05)
(1.04467e-05 -1.88086e-11 -9.69197e-08 1.04467e-05 1.40105e-09 1.04466e-05)
(1.04986e-05 -1.78249e-11 -9.7646e-08 1.04987e-05 1.5932e-09 1.04985e-05)
(1.05432e-05 -1.51002e-11 -9.82702e-08 1.05432e-05 1.7639e-09 1.05431e-05)
(1.05765e-05 -1.07511e-11 -9.87385e-08 1.05765e-05 1.91327e-09 1.05764e-05)
(1.05958e-05 -5.04732e-12 -9.90116e-08 1.05958e-05 2.0421e-09 1.05957e-05)
(1.05996e-05 1.6239e-12 -9.90669e-08 1.05996e-05 2.15173e-09 1.05995e-05)
(1.05874e-05 8.80771e-12 -9.88999e-08 1.05874e-05 2.24395e-09 1.05873e-05)
(1.05602e-05 1.60375e-11 -9.85216e-08 1.05602e-05 2.32074e-09 1.05601e-05)
(1.05194e-05 2.28842e-11 -9.79559e-08 1.05194e-05 2.38415e-09 1.05193e-05)
(1.04675e-05 2.90861e-11 -9.72357e-08 1.04675e-05 2.43581e-09 1.04674e-05)
(1.04066e-05 3.45535e-11 -9.6394e-08 1.04067e-05 2.47685e-09 1.04066e-05)
(1.03391e-05 3.93777e-11 -9.54618e-08 1.03391e-05 2.50776e-09 1.0339e-05)
(1.02663e-05 4.3842e-11 -9.44614e-08 1.02664e-05 2.52833e-09 1.02663e-05)
(1.01893e-05 4.84341e-11 -9.34052e-08 1.01893e-05 2.53762e-09 1.01892e-05)
(1.01078e-05 5.38295e-11 -9.22911e-08 1.01078e-05 2.534e-09 1.01077e-05)
(1.00205e-05 6.0885e-11 -9.1103e-08 1.00205e-05 2.51546e-09 1.00204e-05)
(9.925e-06 7.05849e-11 -8.98071e-08 9.925e-06 2.47968e-09 9.92494e-06)
(9.81766e-06 8.39218e-11 -8.83568e-08 9.81765e-06 2.42432e-09 9.81761e-06)
(9.69398e-06 1.01857e-10 -8.6694e-08 9.69396e-06 2.34713e-09 9.69394e-06)
(9.54875e-06 1.2518e-10 -8.47536e-08 9.54873e-06 2.24671e-09 9.54872e-06)
(9.37649e-06 1.54318e-10 -8.24698e-08 9.37645e-06 2.12282e-09 9.37646e-06)
(9.17192e-06 1.8899e-10 -7.9784e-08 9.17188e-06 1.97706e-09 9.17191e-06)
(8.93101e-06 2.28042e-10 -7.66583e-08 8.93096e-06 1.81295e-09 8.93101e-06)
(8.65156e-06 2.70198e-10 -7.30849e-08 8.6515e-06 1.63555e-09 8.65157e-06)
(8.33234e-06 3.16308e-10 -6.90734e-08 8.33228e-06 1.44478e-09 8.33237e-06)
(7.96916e-06 3.67708e-10 -6.46023e-08 7.96909e-06 1.23859e-09 7.9692e-06)
(7.55739e-06 4.23435e-10 -5.9655e-08 7.5573e-06 1.02104e-09 7.55744e-06)
(7.09374e-06 4.81129e-10 -5.42443e-08 7.09365e-06 7.99456e-10 7.09381e-06)
(6.57655e-06 5.37421e-10 -4.8415e-08 6.57645e-06 5.82763e-10 6.57662e-06)
(6.00652e-06 5.87324e-10 -4.22521e-08 6.00643e-06 3.81688e-10 6.0066e-06)
(5.38827e-06 6.2402e-10 -3.58929e-08 5.38819e-06 2.08152e-10 5.38834e-06)
(4.73195e-06 6.39717e-10 -2.95329e-08 4.73188e-06 7.33628e-11 4.73201e-06)
(4.05428e-06 6.27753e-10 -2.34164e-08 4.05424e-06 -1.53264e-11 4.05432e-06)
(3.37796e-06 5.85496e-10 -1.78045e-08 3.37794e-06 -5.78219e-11 3.37798e-06)
(2.72877e-06 5.16594e-10 -1.29242e-08 2.72877e-06 -6.27691e-11 2.72877e-06)
(2.13073e-06 4.30712e-10 -8.91611e-09 2.13074e-06 -4.59074e-11 2.13072e-06)
(1.60134e-06 3.39962e-10 -5.80799e-09 1.60136e-06 -2.46371e-11 1.60133e-06)
(1.14898e-06 2.53973e-10 -3.52834e-09 1.14899e-06 -9.7336e-12 1.14897e-06)
(7.75144e-07 1.78049e-10 -1.95263e-09 7.75147e-07 -2.6773e-12 7.7514e-07)
(4.77808e-07 1.14429e-10 -9.41913e-10 4.77809e-07 -4.06031e-13 4.77807e-07)
(2.53819e-07 6.39882e-11 -3.61696e-10 2.53819e-07 5.60654e-15 2.53818e-07)
(1.00915e-07 2.73849e-11 -8.82582e-11 1.00915e-07 8.03546e-15 1.00915e-07)
(2.04325e-08 6.31417e-12 -6.31417e-12 2.04325e-08 2.51494e-17 2.04325e-08)
(8.75871e-06 -4.05634e-11 -4.70443e-07 8.75924e-06 6.5544e-10 8.75921e-06)
(8.77074e-06 -1.18397e-10 -4.71516e-07 8.77127e-06 1.93136e-09 8.77126e-06)
(8.7927e-06 -1.87729e-10 -4.7348e-07 8.79321e-06 3.13515e-09 8.79324e-06)
(8.8222e-06 -2.42699e-10 -4.76125e-07 8.82269e-06 4.25986e-09 8.82276e-06)
(8.85572e-06 -2.7737e-10 -4.79156e-07 8.85619e-06 5.29817e-09 8.85631e-06)
(8.88952e-06 -2.88072e-10 -4.82256e-07 8.88996e-06 6.24541e-09 8.89016e-06)
(8.91974e-06 -2.72508e-10 -4.85102e-07 8.92016e-06 7.09728e-09 8.92042e-06)
(8.94272e-06 -2.30365e-10 -4.87389e-07 8.9431e-06 7.85175e-09 8.94344e-06)
(8.95522e-06 -1.63569e-10 -4.88849e-07 8.95557e-06 8.50851e-09 8.95597e-06)
(8.95474e-06 -7.63659e-11 -4.8928e-07 8.95506e-06 9.06988e-09 8.95552e-06)
(8.93972e-06 2.52164e-11 -4.88561e-07 8.94e-06 9.54035e-09 8.94052e-06)
(8.90962e-06 1.34151e-10 -4.86656e-07 8.90988e-06 9.92647e-09 8.91044e-06)
(8.86489e-06 2.43267e-10 -4.83611e-07 8.86513e-06 1.02357e-08 8.86572e-06)
(8.80685e-06 3.46018e-10 -4.79542e-07 8.80707e-06 1.04765e-08 8.80767e-06)
(8.73754e-06 4.3845e-10 -4.74619e-07 8.73774e-06 1.0656e-08 8.73836e-06)
(8.65917e-06 5.19254e-10 -4.69023e-07 8.65934e-06 1.07799e-08 8.65997e-06)
(8.57404e-06 5.89878e-10 -4.62932e-07 8.57419e-06 1.08521e-08 8.57484e-06)
(8.48413e-06 6.54646e-10 -4.56494e-07 8.48425e-06 1.08741e-08 8.48493e-06)
(8.39108e-06 7.20896e-10 -4.4982e-07 8.39116e-06 1.0845e-08 8.39188e-06)
(8.2959e-06 7.98664e-10 -4.42963e-07 8.29593e-06 1.07621e-08 8.29671e-06)
(8.19926e-06 9.00654e-10 -4.35934e-07 8.19923e-06 1.06214e-08 8.2001e-06)
(8.10006e-06 1.04136e-09 -4.28615e-07 8.09996e-06 1.04166e-08 8.10093e-06)
(7.99553e-06 1.23525e-09 -4.20798e-07 7.99535e-06 1.01407e-08 7.99645e-06)
(7.88239e-06 1.49638e-09 -4.12227e-07 7.88211e-06 9.78695e-09 7.88336e-06)
(7.75656e-06 1.83649e-09 -4.026e-07 7.75617e-06 9.35089e-09 7.75758e-06)
(7.61329e-06 2.26223e-09 -3.91586e-07 7.6128e-06 8.83094e-09 7.61438e-06)
(7.44742e-06 2.77009e-09 -3.78855e-07 7.44682e-06 8.23038e-09 7.44855e-06)
(7.25419e-06 3.34342e-09 -3.64146e-07 7.2535e-06 7.55971e-09 7.25536e-06)
(7.03048e-06 3.96321e-09 -3.47346e-07 7.0297e-06 6.83897e-09 7.03166e-06)
(6.77499e-06 4.64203e-09 -3.28486e-07 6.77409e-06 6.07244e-09 6.77622e-06)
(6.48442e-06 5.39996e-09 -3.07466e-07 6.48341e-06 5.25587e-09 6.4857e-06)
(6.15504e-06 6.22334e-09 -2.84202e-07 6.15393e-06 4.4059e-09 6.15636e-06)
(5.78353e-06 7.07783e-09 -2.58722e-07 5.78234e-06 3.54759e-09 5.78486e-06)
(5.36666e-06 7.91274e-09 -2.31152e-07 5.36544e-06 2.70801e-09 5.36795e-06)
(4.90184e-06 8.64944e-09 -2.01767e-07 4.90066e-06 1.91903e-09 4.90305e-06)
(4.38872e-06 9.17589e-09 -1.71081e-07 4.38767e-06 1.21784e-09 4.38978e-06)
(3.83147e-06 9.35839e-09 -1.39932e-07 3.83062e-06 6.43488e-10 3.8323e-06)
(3.24121e-06 9.07664e-09 -1.09512e-07 3.24063e-06 2.28643e-10 3.24177e-06)
(2.63756e-06 8.2781e-09 -8.12599e-08 2.63727e-06 -1.3403e-11 2.63783e-06)
(2.04799e-06 7.02754e-09 -5.66097e-08 2.04792e-06 -9.96307e-11 2.04803e-06)
(1.50376e-06 5.51156e-09 -3.66277e-08 1.50382e-06 -8.2413e-11 1.50369e-06)
(1.03346e-06 3.97743e-09 -2.17415e-08 1.03354e-06 -3.48797e-11 1.03338e-06)
(6.55682e-07 2.62594e-09 -1.16257e-08 6.55731e-07 -4.9105e-12 6.55633e-07)
(3.76143e-07 1.56316e-09 -5.43544e-09 3.76162e-07 3.21483e-12 3.76124e-07)
(1.88489e-07 8.12197e-10 -2.10592e-09 1.88494e-07 2.32729e-12 1.88485e-07)
(7.80873e-08 3.41888e-10 -6.0387e-10 7.80878e-08 6.72258e-13 7.80868e-08)
(3.2151e-08 1.14205e-10 -1.14205e-10 3.2151e-08 8.62358e-14 3.2151e-08)
(1.00915e-07 8.82582e-11 -2.73849e-11 1.00915e-07 8.0348e-15 1.00915e-07)
(5.40411e-05 -1.24775e-09 -8.36449e-06 5.40565e-05 1.01761e-08 5.40593e-05)
(5.41092e-05 -3.6409e-09 -8.38184e-06 5.41244e-05 2.99495e-08 5.41278e-05)
(5.42334e-05 -5.76958e-09 -8.41354e-06 5.42483e-05 4.85889e-08 5.42524e-05)
(5.44e-05 -7.45351e-09 -8.45613e-06 5.44143e-05 6.60392e-08 5.44194e-05)
(5.45882e-05 -8.51096e-09 -8.50471e-06 5.46019e-05 8.21768e-08 5.46084e-05)
(5.47761e-05 -8.83039e-09 -8.55403e-06 5.47889e-05 9.69298e-08 5.4797e-05)
(5.49406e-05 -8.34311e-09 -8.59867e-06 5.49526e-05 1.10229e-07 5.49625e-05)
(5.50599e-05 -7.04125e-09 -8.63353e-06 5.50709e-05 1.2203e-07 5.50826e-05)
(5.51141e-05 -4.98527e-09 -8.65412e-06 5.51242e-05 1.32311e-07 5.51378e-05)
(5.50882e-05 -2.30606e-09 -8.657e-06 5.50973e-05 1.41085e-07 5.51126e-05)
(5.49722e-05 8.11572e-10 -8.64009e-06 5.49805e-05 1.48396e-07 5.49973e-05)
(5.47626e-05 4.15313e-09 -8.60272e-06 5.47701e-05 1.5432e-07 5.47883e-05)
(5.44619e-05 7.50016e-09 -8.54563e-06 5.44686e-05 1.58952e-07 5.4488e-05)
(5.40778e-05 1.06537e-08 -8.47072e-06 5.40839e-05 1.62409e-07 5.41043e-05)
(5.36229e-05 1.3494e-08 -8.38086e-06 5.36283e-05 1.648e-07 5.36496e-05)
(5.31107e-05 1.59824e-08 -8.27907e-06 5.31154e-05 1.66222e-07 5.31377e-05)
(5.25557e-05 1.81641e-08 -8.16847e-06 5.25597e-05 1.66754e-07 5.25831e-05)
(5.19708e-05 2.0172e-08 -8.05162e-06 5.19738e-05 1.6645e-07 5.19985e-05)
(5.13667e-05 2.22301e-08 -7.93053e-06 5.13686e-05 1.65339e-07 5.13951e-05)
(5.07511e-05 2.46427e-08 -7.80633e-06 5.07516e-05 1.63427e-07 5.07803e-05)
(5.01312e-05 2.77986e-08 -7.6799e-06 5.013e-05 1.60711e-07 5.01614e-05)
(4.95026e-05 3.21431e-08 -7.55012e-06 4.94994e-05 1.57149e-07 4.95343e-05)
(4.88474e-05 3.81131e-08 -7.41274e-06 4.88419e-05 1.52657e-07 4.88808e-05)
(4.81462e-05 4.6137e-08 -7.26349e-06 4.8138e-05 1.47169e-07 4.81815e-05)
(4.73747e-05 5.65764e-08 -7.09725e-06 4.73637e-05 1.40634e-07 4.74121e-05)
(4.65039e-05 6.96496e-08 -6.90832e-06 4.64899e-05 1.33009e-07 4.65434e-05)
(4.55012e-05 8.52823e-08 -6.69074e-06 4.54844e-05 1.2429e-07 4.55427e-05)
(4.43358e-05 1.03007e-07 -6.43948e-06 4.43163e-05 1.14593e-07 4.43787e-05)
(4.29861e-05 1.2226e-07 -6.15192e-06 4.29642e-05 1.04307e-07 4.30302e-05)
(4.14438e-05 1.43415e-07 -5.82828e-06 4.1419e-05 9.35656e-08 4.14892e-05)
(3.96887e-05 1.67067e-07 -5.46659e-06 3.96609e-05 8.22871e-08 3.97353e-05)
(3.76978e-05 1.92807e-07 -5.06516e-06 3.76675e-05 7.07071e-08 3.77451e-05)
(3.545e-05 2.19617e-07 -4.62396e-06 3.54179e-05 5.9094e-08 3.54969e-05)
(3.29223e-05 2.45972e-07 -4.14436e-06 3.28896e-05 4.76195e-08 3.29677e-05)
(3.00936e-05 2.69452e-07 -3.62993e-06 3.0062e-05 3.64637e-08 3.01359e-05)
(2.69545e-05 2.86531e-07 -3.08824e-06 2.69258e-05 2.59042e-08 2.69915e-05)
(2.35224e-05 2.92879e-07 -2.53284e-06 2.34989e-05 1.63886e-08 2.35522e-05)
(1.98591e-05 2.84432e-07 -1.9843e-06 1.98424e-05 8.54896e-09 1.988e-05)
(1.60839e-05 2.59141e-07 -1.46914e-06 1.60744e-05 3.05117e-09 1.60956e-05)
(1.23733e-05 2.18748e-07 -1.01564e-06 1.23702e-05 2.88916e-10 1.23775e-05)
(8.94012e-06 1.69376e-07 -6.47146e-07 8.9407e-06 -1.66851e-10 8.93981e-06)
(5.97977e-06 1.19128e-07 -3.73346e-07 5.98124e-06 2.63741e-10 5.9783e-06)
(3.62786e-06 7.50207e-08 -1.89853e-07 3.62879e-06 4.4e-10 3.62691e-06)
(1.9321e-06 4.09105e-08 -8.10461e-08 1.93242e-06 2.81802e-10 1.93178e-06)
(8.50241e-07 1.76401e-08 -2.59691e-08 8.50293e-07 9.67431e-11 8.50189e-07)
(2.7509e-07 4.6264e-09 -4.6264e-09 2.75091e-07 1.4584e-11 2.75091e-07)
(7.80873e-08 6.0387e-10 -3.41888e-10 7.80867e-08 6.72256e-13 7.80878e-08)
(2.53819e-07 3.61696e-10 -6.39882e-11 2.53818e-07 5.6046e-15 2.53819e-07)
(0.000193892 -1.2337e-08 -5.57791e-05 0.000194037 5.70534e-08 0.0001935)
(0.000194116 -3.59753e-08 -5.58773e-05 0.000194259 1.67902e-07 0.000193722)
(0.000194521 -5.69456e-08 -5.60562e-05 0.000194662 2.72433e-07 0.000194128)
(0.000195064 -7.34754e-08 -5.6296e-05 0.000195199 3.70495e-07 0.000194671)
(0.000195675 -8.37885e-08 -5.65684e-05 0.000195804 4.61475e-07 0.000195284)
(0.000196282 -8.68085e-08 -5.68431e-05 0.000196403 5.4499e-07 0.000195893)
(0.000196807 -8.18912e-08 -5.70893e-05 0.000196921 6.20643e-07 0.000196421)
(0.000197178 -6.89864e-08 -5.72775e-05 0.000197283 6.88105e-07 0.000196797)
(0.000197329 -4.8706e-08 -5.73819e-05 0.000197425 7.47131e-07 0.000196955)
(0.00019721 -2.23341e-08 -5.73829e-05 0.000197297 7.97623e-07 0.000196843)
(0.000196787 8.33398e-09 -5.72683e-05 0.000196865 8.39647e-07 0.000196429)
(0.000196048 4.12302e-08 -5.70338e-05 0.000196118 8.73441e-07 0.0001957)
(0.000195 7.42566e-08 -5.66833e-05 0.000195063 8.99386e-07 0.000194663)
(0.000193669 1.05512e-07 -5.62272e-05 0.000193725 9.1803e-07 0.000193344)
(0.000192096 1.33861e-07 -5.56815e-05 0.000192145 9.29961e-07 0.000191785)
(0.000190326 1.58959e-07 -5.50633e-05 0.000190367 9.3578e-07 0.000190029)
(0.000188407 1.81277e-07 -5.43903e-05 0.00018844 9.36064e-07 0.000188126)
(0.000186381 2.02144e-07 -5.36773e-05 0.000186406 9.31333e-07 0.000186119)
(0.000184286 2.23789e-07 -5.29361e-05 0.0001843 9.22033e-07 0.000184044)
(0.000182147 2.49235e-07 -5.21736e-05 0.000182147 9.08555e-07 0.000181928)
(0.000179988 2.82336e-07 -5.13964e-05 0.000179973 8.91201e-07 0.000179796)
(0.000177792 3.27449e-07 -5.0597e-05 0.000177759 8.70002e-07 0.000177629)
(0.000175502 3.88904e-07 -4.97511e-05 0.000175447 8.44816e-07 0.000175373)
(0.000173053 4.71002e-07 -4.88336e-05 0.000172975 8.15529e-07 0.000172961)
(0.000170366 5.77433e-07 -4.78142e-05 0.000170261 7.81962e-07 0.000170314)
(0.000167341 7.10648e-07 -4.66582e-05 0.00016721 7.4373e-07 0.000167332)
(0.000163869 8.70596e-07 -4.53284e-05 0.000163712 7.00351e-07 0.000163905)
(0.00015984 1.05378e-06 -4.37903e-05 0.000159659 6.52015e-07 0.000159921)
(0.000155171 1.25559e-06 -4.20201e-05 0.000154967 6.01323e-07 0.000155294)
(0.000149815 1.47942e-06 -4.00094e-05 0.000149586 5.49731e-07 0.000149981)
(0.000143703 1.73065e-06 -3.77429e-05 0.00014345 4.97145e-07 0.00014391)
(0.000136757 2.00575e-06 -3.52065e-05 0.000136484 4.44676e-07 0.000137001)
(0.000128899 2.29549e-06 -3.23931e-05 0.000128612 3.92632e-07 0.000129173)
(0.00012004 2.58543e-06 -2.93008e-05 0.000119746 3.39679e-07 0.000120335)
(0.000110089 2.85164e-06 -2.59391e-05 0.000109802 2.83849e-07 0.000110392)
(9.89917e-05 3.05791e-06 -2.23409e-05 9.87254e-05 2.23685e-07 9.92829e-05)
(8.67731e-05 3.15774e-06 -1.85771e-05 8.65452e-05 1.59861e-07 8.70319e-05)
(7.3609e-05 3.10357e-06 -1.47701e-05 7.34358e-05 9.69578e-08 7.38141e-05)
(5.98821e-05 2.86442e-06 -1.10956e-05 5.97736e-05 4.37329e-08 6.00187e-05)
(4.62056e-05 2.44659e-06 -7.76342e-06 4.61591e-05 1.10377e-08 4.62722e-05)
(3.3377e-05 1.90692e-06 -4.97576e-06 3.3372e-05 2.60961e-09 3.3392e-05)
(2.21984e-05 1.33526e-06 -2.85433e-06 2.22072e-05 5.82274e-09 2.21929e-05)
(1.32731e-05 8.17678e-07 -1.40936e-06 1.32792e-05 6.63346e-09 1.32678e-05)
(6.86953e-06 4.10644e-07 -5.53243e-07 6.8711e-06 3.64914e-09 6.86805e-06)
(2.87229e-06 1.44369e-07 -1.44369e-07 2.87229e-06 9.80779e-10 2.87229e-06)
(8.50241e-07 2.59691e-08 -1.76401e-08 8.50189e-07 9.6743e-11 8.50293e-07)
(1.88489e-07 2.10592e-09 -8.12196e-10 1.88485e-07 2.32728e-12 1.88494e-07)
(4.77807e-07 9.41912e-10 -1.14429e-10 4.77806e-07 -4.06034e-13 4.77808e-07)
(0.00044363 -5.4299e-08 -0.000174502 0.000444248 1.42012e-07 0.000441379)
(0.000444032 -1.58176e-07 -0.000174726 0.000444643 4.19797e-07 0.000441779)
(0.000444754 -2.49928e-07 -0.000175133 0.000445351 6.8284e-07 0.00044252)
(0.000445715 -3.21835e-07 -0.000175676 0.000446292 9.2931e-07 0.000443506)
(0.000446787 -3.6629e-07 -0.000176288 0.000447338 1.15887e-06 0.000444609)
(0.000447832 -3.78774e-07 -0.000176897 0.000448352 1.37056e-06 0.000445692)
(0.000448707 -3.56728e-07 -0.00017743 0.000449193 1.56322e-06 0.000446609)
(0.000449275 -3.00157e-07 -0.000177818 0.000449724 1.73568e-06 0.000447221)
(0.000449411 -2.11872e-07 -0.000178 0.000449822 1.88686e-06 0.000447405)
(0.000449019 -9.74527e-08 -0.000177928 0.000449391 2.01597e-06 0.000447061)
(0.000448035 3.54526e-08 -0.000177573 0.00044837 2.12263e-06 0.000446125)
(0.000446433 1.78158e-07 -0.000176923 0.000446732 2.20694e-06 0.000444572)
(0.000444225 3.21946e-07 -0.000175986 0.00044449 2.26948e-06 0.000442412)
(0.000441457 4.59023e-07 -0.000174783 0.000441688 2.31147e-06 0.000439691)
(0.000438202 5.84856e-07 -0.000173352 0.000438401 2.33438e-06 0.000436485)
(0.000434546 6.98282e-07 -0.000171732 0.00043471 2.34001e-06 0.00043288)
(0.000430578 8.01655e-07 -0.000169963 0.000430705 2.33027e-06 0.000428967)
(0.00042638 9.01057e-07 -0.000168082 0.000426466 2.3072e-06 0.00042483)
(0.000422024 1.00649e-06 -0.000166118 0.000422061 2.27274e-06 0.000420541)
(0.00041756 1.13157e-06 -0.000164087 0.000417542 2.22883e-06 0.000416153)
(0.000413027 1.29308e-06 -0.000162006 0.000412944 2.17709e-06 0.000411707)
(0.00040839 1.50968e-06 -0.000159854 0.00040823 2.11848e-06 0.000407166)
(0.000403551 1.8006e-06 -0.000157577 0.000403305 2.0537e-06 0.000402434)
(0.000398389 2.18516e-06 -0.000155112 0.000398048 1.98313e-06 0.000397389)
(0.00039275 2.68028e-06 -0.000152383 0.000392306 1.90677e-06 0.000391874)
(0.000386443 3.29849e-06 -0.000149302 0.000385891 1.8234e-06 0.000385699)
(0.000379249 4.04383e-06 -0.000145767 0.000378587 1.73058e-06 0.000378641)
(0.000370935 4.90931e-06 -0.000141676 0.000370168 1.62596e-06 0.000370463)
(0.000361286 5.88479e-06 -0.000136934 0.000360421 1.51102e-06 0.000360946)
(0.000350108 6.98336e-06 -0.000131457 0.00034915 1.39583e-06 0.000349943)
(0.000337265 8.22356e-06 -0.000125194 0.000336222 1.29434e-06 0.000337288)
(0.000322604 9.59547e-06 -0.000118093 0.000321493 1.20902e-06 0.000322802)
(0.000305926 1.10669e-05 -0.0001101 0.000304764 1.13412e-06 0.000306282)
(0.000286982 1.25797e-05 -0.000101153 0.000285794 1.05814e-06 0.000287471)
(0.000265493 1.40308e-05 -9.12119e-05 0.000264311 9.64864e-07 0.000266083)
(0.000241208 1.52559e-05 -8.02797e-05 0.000240073 8.36594e-07 0.000241855)
(0.000213995 1.60289e-05 -6.84571e-05 0.000212963 6.6116e-07 0.00021465)
(0.000183997 1.6091e-05 -5.59988e-05 0.000183134 4.43061e-07 0.0001846)
(0.000151812 1.52183e-05 -4.3364e-05 0.000151186 2.13455e-07 0.000152295)
(0.000118656 1.33222e-05 -3.12266e-05 0.000118315 4.1563e-08 0.000118955)
(8.64433e-05 1.05635e-05 -2.0413e-05 8.63392e-05 -9.23371e-09 8.65498e-05)
(5.75143e-05 7.37632e-06 -1.16952e-05 5.75178e-05 1.51762e-08 5.75212e-05)
(3.3988e-05 4.32038e-06 -5.52715e-06 3.40008e-05 2.85623e-08 3.39818e-05)
(1.71237e-05 1.92739e-06 -1.92739e-06 1.71246e-05 1.59762e-08 1.71246e-05)
(6.86952e-06 5.53243e-07 -4.10644e-07 6.86805e-06 3.64914e-09 6.8711e-06)
(1.9321e-06 8.10461e-08 -4.09104e-08 1.93178e-06 2.81801e-10 1.93242e-06)
(3.76143e-07 5.43544e-09 -1.56316e-09 3.76124e-07 3.21481e-12 3.76162e-07)
(7.75144e-07 1.95262e-09 -1.78048e-10 7.7514e-07 -2.6773e-12 7.75147e-07)
(0.000730402 -1.40637e-07 -0.000327736 0.000731963 2.00658e-07 0.000730092)
(0.000730836 -4.09284e-07 -0.000328012 0.000732379 5.96229e-07 0.000730565)
(0.000731621 -6.45309e-07 -0.000328514 0.000733129 9.725e-07 0.000731414)
(0.000732652 -8.2893e-07 -0.000329177 0.000734109 1.32404e-06 0.000732535)
(0.000733773 -9.41284e-07 -0.000329913 0.000735166 1.65165e-06 0.000733767)
(0.000734819 -9.71348e-07 -0.000330626 0.000736135 1.95336e-06 0.000734937)
(0.000735611 -9.13344e-07 -0.000331222 0.000736841 2.22671e-06 0.000735863)
(0.00073598 -7.68007e-07 -0.000331606 0.000737117 2.46898e-06 0.000736367)
(0.000735772 -5.42987e-07 -0.000331698 0.000736811 2.67761e-06 0.00073629)
(0.000734862 -2.52541e-07 -0.000331432 0.000735802 2.85058e-06 0.000735503)
(0.00073317 8.43115e-08 -0.000330768 0.00073401 2.98675e-06 0.00073392)
(0.000730657 4.46391e-07 -0.000329687 0.000731401 3.08585e-06 0.000731504)
(0.000727335 8.12831e-07 -0.000328195 0.000727985 3.14864e-06 0.000728263)
(0.000723253 1.16548e-06 -0.000326319 0.000723812 3.17724e-06 0.00072425)
(0.000718502 1.49429e-06 -0.000324105 0.00071897 3.17423e-06 0.00071956)
(0.000713185 1.79771e-06 -0.000321601 0.000713558 3.14283e-06 0.000714298)
(0.000707415 2.08308e-06 -0.000318861 0.000707687 3.08653e-06 0.000708583)
(0.000701296 2.36711e-06 -0.000315933 0.000701457 3.00906e-06 0.000702523)
(0.000694923 2.67642e-06 -0.000312855 0.000694958 2.91378e-06 0.000696219)
(0.000688365 3.04673e-06 -0.000309652 0.000688257 2.80396e-06 0.000689741)
(0.000681664 3.52054e-06 -0.000306346 0.00068139 2.68193e-06 0.000683137)
(0.000674781 4.14482e-06 -0.000302905 0.000674319 2.54897e-06 0.000676368)
(0.000667611 4.96906e-06 -0.000299261 0.000666937 2.40611e-06 0.000669325)
(0.000660005 6.04314e-06 -0.000295328 0.000659098 2.25288e-06 0.000661854)
(0.000651769 7.41164e-06 -0.000291 0.000650611 2.08844e-06 0.000653758)
(0.000642661 9.11029e-06 -0.000286148 0.000641236 1.90992e-06 0.000644789)
(0.00063239 1.11593e-05 -0.00028062 0.000630684 1.71275e-06 0.000634652)
(0.000620632 1.35617e-05 -0.00027425 0.000618633 1.49429e-06 0.00062302)
(0.000607027 1.63303e-05 -0.000266855 0.000604752 1.27862e-06 0.000609516)
(0.000591167 1.94906e-05 -0.000258226 0.00058868 1.08542e-06 0.000593692)
(0.000572846 2.30619e-05 -0.000248253 0.000570216 9.1296e-07 0.000575354)
(0.000551847 2.70368e-05 -0.000236828 0.000549111 7.75887e-07 0.000554305)
(0.000527807 3.13581e-05 -0.000223792 0.000525001 6.74695e-07 0.00053019)
(0.000500241 3.58933e-05 -0.000208955 0.000497407 5.91083e-07 0.000502526)
(0.000468555 4.0392e-05 -0.000192111 0.000465739 5.01769e-07 0.000470727)
(0.000432093 4.44406e-05 -0.00017308 0.000429346 3.8254e-07 0.000434138)
(0.00039024 4.74399e-05 -0.000151774 0.000387629 2.15133e-07 0.00039213)
(0.000342624 4.86347e-05 -0.000128298 0.000340247 -4.42099e-09 0.000344296)
(0.000289421 4.72282e-05 -0.000103105 0.00028746 -2.65517e-07 0.000290763)
(0.000231803 4.25865e-05 -7.71391e-05 0.000230523 -4.55936e-07 0.000232654)
(0.000172527 3.45994e-05 -5.19855e-05 0.000171978 -3.63169e-07 0.000172836)
(0.00011625 2.42257e-05 -2.99752e-05 0.000116134 -1.09306e-07 0.000116275)
(6.86055e-05 1.36261e-05 -1.36261e-05 6.86031e-05 2.85207e-08 6.86031e-05)
(3.3988e-05 5.52715e-06 -4.32038e-06 3.39818e-05 2.85622e-08 3.40008e-05)
(1.32731e-05 1.40936e-06 -8.17677e-07 1.32678e-05 6.63345e-09 1.32792e-05)
(3.62786e-06 1.89853e-07 -7.50206e-08 3.62691e-06 4.4e-10 3.62879e-06)
(6.55682e-07 1.16257e-08 -2.62594e-09 6.55633e-07 -4.91052e-12 6.55731e-07)
(1.14898e-06 3.52833e-09 -2.53973e-10 1.14897e-06 -9.73361e-12 1.14899e-06)
(0.000983159 -2.66374e-07 -0.000457879 0.000986014 1.94273e-07 0.000984927)
(0.000983485 -7.74776e-07 -0.000458033 0.000986307 5.73867e-07 0.000985306)
(0.000984086 -1.21871e-06 -0.000458306 0.000986843 9.33072e-07 0.000985941)
(0.000984849 -1.56067e-06 -0.000458653 0.000987512 1.26956e-06 0.000986759)
(0.000985627 -1.76728e-06 -0.000459007 0.000988171 1.58089e-06 0.000987612)
(0.000986258 -1.81932e-06 -0.000459291 0.000988659 1.86379e-06 0.000988336)
(0.000986567 -1.70785e-06 -0.000459427 0.000988808 2.11424e-06 0.000988757)
(0.000986385 -1.43595e-06 -0.000459335 0.000988451 2.32784e-06 0.0009887)
(0.000985556 -1.019e-06 -0.000458942 0.000987437 2.50059e-06 0.000988008)
(0.000983952 -4.83614e-07 -0.000458189 0.000985644 2.62931e-06 0.000986548)
(0.000981487 1.35927e-07 -0.000457036 0.000982988 2.71223e-06 0.000984229)
(0.000978117 8.02481e-07 -0.000455461 0.000979431 2.74885e-06 0.000981005)
(0.000973845 1.48049e-06 -0.000453467 0.000974974 2.74002e-06 0.000976879)
(0.000968717 2.14026e-06 -0.000451074 0.000969666 2.6888e-06 0.000971895)
(0.00096282 2.7669e-06 -0.000448323 0.000963585 2.59837e-06 0.000966143)
(0.000956254 3.36107e-06 -0.00044526 0.000956832 2.47264e-06 0.00095973)
(0.000949135 3.93957e-06 -0.00044194 0.000949514 2.31555e-06 0.000952778)
(0.000941575 4.53619e-06 -0.000438414 0.000941735 2.13111e-06 0.000945403)
(0.000933677 5.20221e-06 -0.000434729 0.000933593 1.92185e-06 0.00093772)
(0.000925519 6.00387e-06 -0.00043092 0.000925158 1.68963e-06 0.000929814)
(0.000917152 7.01994e-06 -0.000427009 0.000916475 1.4349e-06 0.000921741)
(0.000908547 8.33783e-06 -0.00042298 0.000907511 1.15675e-06 0.000913479)
(0.000899615 1.00492e-05 -0.000418784 0.000898175 8.52604e-07 0.000904942)
(0.000890216 1.22474e-05 -0.00041435 0.00088833 5.16555e-07 0.000895991)
(0.000880161 1.5019e-05 -0.000409576 0.000877787 1.43307e-07 0.000886434)
(0.000869202 1.84392e-05 -0.000404332 0.000866301 -2.73702e-07 0.000876023)
(0.000857036 2.25642e-05 -0.000398453 0.000853566 -7.38496e-07 0.000864453)
(0.000843308 2.74286e-05 -0.000391739 0.000839213 -1.24537e-06 0.000851365)
(0.000827578 3.30661e-05 -0.000383956 0.000822894 -1.77899e-06 0.000836267)
(0.000809354 3.94445e-05 -0.000373809 0.000804289 -2.29314e-06 0.000818167)
(0.000788361 4.66356e-05 -0.000361584 0.00078309 -2.78692e-06 0.00079701)
(0.000764299 5.46554e-05 -0.000347554 0.000758885 -3.25756e-06 0.000772728)
(0.000736662 6.33907e-05 -0.000331473 0.000731165 -3.68589e-06 0.000744818)
(0.000704742 7.26005e-05 -0.000313022 0.000699251 -4.05431e-06 0.000712564)
(0.000667639 8.18369e-05 -0.000291821 0.000662259 -4.34207e-06 0.000675043)
(0.000624259 9.03688e-05 -0.000267438 0.000619121 -4.5241e-06 0.000631123)
(0.000573378 9.71224e-05 -0.000239443 0.000568645 -4.57085e-06 0.000579523)
(0.000513829 0.000100673 -0.000207517 0.00050966 -4.44702e-06 0.000519015)
(0.000444818 9.93553e-05 -0.000171677 0.00044144 -4.15972e-06 0.000448777)
(0.000366522 9.15586e-05 -0.000132631 0.000364376 -3.59096e-06 0.000368922)
(0.000281129 7.61371e-05 -9.21411e-05 0.000280256 -2.25991e-06 0.000281795)
(0.000194309 5.39706e-05 -5.39706e-05 0.000194152 -8.19381e-07 0.000194152)
(0.00011625 2.99752e-05 -2.42257e-05 0.000116275 -1.09306e-07 0.000116134)
(5.75143e-05 1.16952e-05 -7.37631e-06 5.75212e-05 1.51762e-08 5.75177e-05)
(2.21984e-05 2.85433e-06 -1.33525e-06 2.21929e-05 5.82273e-09 2.22071e-05)
(5.97977e-06 3.73345e-07 -1.19127e-07 5.97829e-06 2.6374e-10 5.98124e-06)
(1.03346e-06 2.17414e-08 -3.97742e-09 1.03338e-06 -3.48796e-11 1.03354e-06)
(1.60134e-06 5.80799e-09 -3.39962e-10 1.60133e-06 -2.46371e-11 1.60135e-06)
(0.00118618 -4.22021e-07 -0.000551515 0.00119051 1.30787e-07 0.00118157)
(0.00118634 -1.22705e-06 -0.000551588 0.00119062 3.80382e-07 0.00118177)
(0.00118662 -1.92645e-06 -0.000551709 0.0011908 6.13411e-07 0.00118211)
(0.00118692 -2.46099e-06 -0.000551842 0.00119096 8.335e-07 0.00118252)
(0.00118713 -2.78122e-06 -0.000551932 0.00119099 1.03337e-06 0.00118286)
(0.00118711 -2.85863e-06 -0.000551916 0.00119075 1.20828e-06 0.00118301)
(0.00118671 -2.68126e-06 -0.000551724 0.0011901 1.35249e-06 0.0011828)
(0.00118578 -2.25576e-06 -0.000551287 0.0011889 1.45974e-06 0.0011821)
(0.00118418 -1.60718e-06 -0.000550538 0.001187 1.52441e-06 0.00118074)
(0.00118178 -7.76727e-07 -0.000549421 0.0011843 1.542e-06 0.00117861)
(0.00117851 1.83976e-07 -0.000547897 0.00118072 1.50989e-06 0.00117562)
(0.00117431 1.22045e-06 -0.000545943 0.00117622 1.42696e-06 0.00117171)
(0.00116918 2.28217e-06 -0.000543556 0.00117079 1.29355e-06 0.00116689)
(0.00116316 3.32906e-06 -0.000540753 0.00116447 1.11305e-06 0.00116117)
(0.00115632 4.34373e-06 -0.000537566 0.00115732 8.88165e-07 0.00115464)
(0.00114875 5.33278e-06 -0.000534039 0.00114943 6.22237e-07 0.0011474)
(0.00114055 6.32733e-06 -0.00053022 0.0011409 3.18163e-07 0.00113956)
(0.00113183 7.38369e-06 -0.000526158 0.00113182 -2.13068e-08 0.00113124)
(0.00112271 8.58301e-06 -0.0005219 0.00112228 -3.96023e-07 0.00112255)
(0.00111326 1.00268e-05 -0.000517485 0.00111237 -8.06292e-07 0.0011136)
(0.00110355 1.18356e-05 -0.000512934 0.00110213 -1.2549e-06 0.00110446)
(0.00109356 1.41417e-05 -0.000508236 0.00109155 -1.74663e-06 0.00109513)
(0.00108325 1.70809e-05 -0.000503351 0.00108057 -2.28783e-06 0.00108555)
(0.0010725 2.07905e-05 -0.000498211 0.00106906 -2.88928e-06 0.00107562)
(0.00106114 2.53973e-05 -0.000492712 0.00105688 -3.55784e-06 0.00106518)
(0.00104897 3.10134e-05 -0.000486718 0.0010438 -4.29909e-06 0.00105401)
(0.00103567 3.77278e-05 -0.000480043 0.00102955 -5.10868e-06 0.0010418)
(0.00102092 4.56006e-05 -0.000472461 0.00101379 -5.95789e-06 0.00102818)
(0.00100425 5.46579e-05 -0.000463698 0.000996189 -6.84668e-06 0.00101266)
(0.000985224 6.49832e-05 -0.000453439 0.000976422 -7.77695e-06 0.000994666)
(0.000963495 7.66486e-05 -0.000441377 0.000954135 -8.72419e-06 0.000973832)
(0.000938643 8.95562e-05 -0.000427153 0.000928874 -9.66209e-06 0.00094972)
(0.000910036 0.00010345 -0.000410304 0.000900058 -1.05279e-05 0.000921606)
(0.000876802 0.00011787 -0.000390282 0.000866902 -1.12302e-05 0.000888497)
(0.000837795 0.000132063 -0.000366484 0.000828348 -1.16751e-05 0.00084913)
(0.000791564 0.000144924 -0.000338321 0.000783016 -1.17814e-05 0.000801978)
(0.000736361 0.000154971 -0.000305314 0.000729182 -1.14986e-05 0.000745304)
(0.000670303 0.000160376 -0.00026725 0.000664786 -1.08091e-05 0.000677357)
(0.000591659 0.000159088 -0.000224429 0.000587865 -9.85088e-06 0.000596649)
(0.00049924 0.000149253 -0.000177903 0.000497878 -8.81198e-06 0.000502223)
(0.00039423 0.00012743 -0.00012743 0.000394752 -6.0113e-06 0.000394752)
(0.000281129 9.21412e-05 -7.61371e-05 0.000281795 -2.25991e-06 0.000280256)
(0.000172527 5.19855e-05 -3.45994e-05 0.000172836 -3.63168e-07 0.000171978)
(8.64432e-05 2.0413e-05 -1.05634e-05 8.65498e-05 -9.23359e-09 8.63392e-05)
(3.3377e-05 4.97575e-06 -1.90692e-06 3.33919e-05 2.60962e-09 3.3372e-05)
(8.94012e-06 6.47146e-07 -1.69376e-07 8.93981e-06 -1.6685e-10 8.9407e-06)
(1.50376e-06 3.66277e-08 -5.51155e-09 1.50369e-06 -8.24129e-11 1.50382e-06)
(2.13073e-06 8.9161e-09 -4.30712e-10 2.13072e-06 -4.59074e-11 2.13074e-06)
(0.00134195 -6.07532e-07 -0.000623649 0.00134792 3.17026e-08 0.00133369)
(0.00134188 -1.76433e-06 -0.000623614 0.00134778 8.98934e-08 0.00133368)
(0.0013417 -2.76366e-06 -0.000623532 0.00134746 1.41451e-07 0.00133367)
(0.00134137 -3.52189e-06 -0.000623384 0.00134693 1.86667e-07 0.00133357)
(0.00134082 -3.97168e-06 -0.000623133 0.00134612 2.17457e-07 0.00133331)
(0.00133994 -4.07444e-06 -0.000622734 0.00134493 2.274e-07 0.00133278)