/*--------------------------------*- C++ -*----------------------------------*\
| =========                 |                                                 |
| \\      /  F ield         | OpenFOAM: The Open Source CFD Toolbox           |
|  \\    /   O peration     | Version:  2412                                  |
|   \\  /    A nd           | Website:  www.openfoam.com                      |
|    \\/     M anipulation  |                                                 |
\*---------------------------------------------------------------------------*/
FoamFile
{
    version     2.0;
    format      ascii;
    arch        "LSB;label=32;scalar=64";
    class       volVectorField;
    location    "1830";
    object      U;
}
// * * * * * * * * * * * * * * * * * * * * * * * * * * * * * * * * * * * * * //

dimensions      [0 1 -1 0 0 0 0];

internalField   nonuniform List<vector> 
2304
(
(0.0226936 -3.71884e-05 1.44002e-05)
(0.0227142 -0.000109391 1.45058e-05)
(0.0227519 -0.000177066 1.44798e-05)
(0.0228027 -0.000239631 1.444e-05)
(0.022861 -0.000296622 1.43935e-05)
(0.0229216 -0.000347917 1.43336e-05)
(0.0229788 -0.000393525 1.42618e-05)
(0.0230278 -0.000433686 1.41753e-05)
(0.0230646 -0.000468771 1.40753e-05)
(0.0230862 -0.000499294 1.39615e-05)
(0.023091 -0.000525838 1.38349e-05)
(0.0230786 -0.000549015 1.3696e-05)
(0.0230499 -0.000569384 1.35441e-05)
(0.0230065 -0.000587452 1.33808e-05)
(0.022951 -0.000603542 1.31983e-05)
(0.0228858 -0.000617816 1.2998e-05)
(0.022813 -0.000630255 1.27686e-05)
(0.0227343 -0.000640667 1.25096e-05)
(0.0226507 -0.000648694 1.2205e-05)
(0.0225616 -0.000653835 1.18529e-05)
(0.0224657 -0.000655529 1.14415e-05)
(0.02236 -0.000653198 1.09691e-05)
(0.0222402 -0.000646272 1.04181e-05)
(0.0221009 -0.000634205 9.78563e-06)
(0.0219359 -0.000616638 9.07324e-06)
(0.0217381 -0.000593465 8.29116e-06)
(0.0215004 -0.000564981 7.47077e-06)
(0.0212169 -0.000531891 6.63074e-06)
(0.020883 -0.000495138 5.78251e-06)
(0.0204949 -0.00045368 4.5539e-06)
(0.0200441 -0.000405537 3.09293e-06)
(0.0195202 -0.000350507 1.54403e-06)
(0.0189127 -0.000289266 -5.16974e-08)
(0.018211 -0.000222955 -1.61097e-06)
(0.0174048 -0.000153597 -2.97582e-06)
(0.0164861 -8.45373e-05 -3.90286e-06)
(0.0154518 -2.06811e-05 -4.09123e-06)
(0.0143064 3.18027e-05 -3.27218e-06)
(0.0130648 6.66599e-05 -1.38802e-06)
(0.0117515 7.96624e-05 1.24035e-06)
(0.0103967 7.16697e-05 3.65416e-06)
(0.00902765 5.07956e-05 4.53547e-06)
(0.00766173 2.84988e-05 3.74593e-06)
(0.00630551 1.23289e-05 2.27989e-06)
(0.0049578 3.69206e-06 1.00768e-06)
(0.00361086 4.84572e-07 2.50519e-07)
(0.00224674 -8.12693e-08 -6.31366e-09)
(0.000822317 -1.19456e-08 1.19345e-08)
(0.0686078 -0.000105056 4.20095e-05)
(0.0686704 -0.000309123 4.16859e-05)
(0.068785 -0.000500467 4.11681e-05)
(0.0689392 -0.000677465 4.03867e-05)
(0.0691166 -0.000838907 3.94158e-05)
(0.0693005 -0.000984437 3.82961e-05)
(0.0694744 -0.00111406 3.70939e-05)
(0.0696233 -0.00122838 3.58641e-05)
(0.0697349 -0.00132837 3.46704e-05)
(0.0698003 -0.00141537 3.35623e-05)
(0.0698146 -0.00149089 3.25794e-05)
(0.0697767 -0.00155656 3.1739e-05)
(0.069689 -0.00161385 3.10366e-05)
(0.0695569 -0.0016641 3.04495e-05)
(0.0693877 -0.00170819 2.98973e-05)
(0.0691888 -0.00174657 2.93228e-05)
(0.068967 -0.00177924 2.86129e-05)
(0.0687272 -0.00180574 2.76868e-05)
(0.068472 -0.00182519 2.64086e-05)
(0.0682005 -0.00183637 2.47029e-05)
(0.067908 -0.0018379 2.24763e-05)
(0.0675855 -0.00182833 1.96872e-05)
(0.0672202 -0.00180627 1.62624e-05)
(0.0667957 -0.00177044 1.22174e-05)
(0.0662928 -0.00172002 7.63816e-06)
(0.0656904 -0.00165482 2.70289e-06)
(0.064967 -0.00157555 -2.28577e-06)
(0.0641041 -0.00148384 -7.12007e-06)
(0.0630881 -0.00138184 -1.21944e-05)
(0.0619074 -0.00126751 -1.9545e-05)
(0.0605364 -0.00113698 -2.85419e-05)
(0.0589436 -0.00099014 -3.80665e-05)
(0.0570974 -0.000828851 -4.75625e-05)
(0.0549658 -0.000656101 -5.62366e-05)
(0.0525174 -0.000476922 -6.26858e-05)
(0.0497275 -0.000299308 -6.4865e-05)
(0.0465854 -0.00013465 -6.04065e-05)
(0.0431039 2.96066e-06 -4.74518e-05)
(0.039326 9.9279e-05 -2.60811e-05)
(0.0353258 0.000144344 1.73581e-07)
(0.0311957 0.000139212 2.31786e-05)
(0.0270218 0.000101505 3.35899e-05)
(0.0228595 5.72144e-05 3.02174e-05)
(0.0187305 2.41639e-05 1.99702e-05)
(0.0146335 6.48442e-06 9.88247e-06)
(0.0105499 2.08322e-07 3.2704e-06)
(0.00644278 -4.883e-07 4.88249e-07)
(0.00224674 6.29309e-09 8.12447e-08)
(0.11593 -0.000166867 -3.75054e-05)
(0.116036 -0.000490999 -3.93452e-05)
(0.116229 -0.000794983 -4.10537e-05)
(0.116489 -0.00107642 -4.36092e-05)
(0.116787 -0.00133345 -4.67771e-05)
(0.117097 -0.00156549 -5.03613e-05)
(0.117389 -0.00177252 -5.41216e-05)
(0.117639 -0.0019554 -5.78381e-05)
(0.117826 -0.00211552 -6.12873e-05)
(0.117936 -0.00225482 -6.42886e-05)
(0.117959 -0.00237557 -6.67072e-05)
(0.117894 -0.00248013 -6.8483e-05)
(0.117745 -0.0025707 -6.96266e-05)
(0.117521 -0.00264928 -7.02195e-05)
(0.117234 -0.00271721 -7.04879e-05)
(0.116896 -0.00277523 -7.0626e-05)
(0.11652 -0.00282342 -7.09472e-05)
(0.116112 -0.00286119 -7.17039e-05)
(0.115678 -0.00288738 -7.32494e-05)
(0.115216 -0.00290033 -7.58053e-05)
(0.114717 -0.00289814 -7.9608e-05)
(0.114167 -0.00287882 -8.47471e-05)
(0.113544 -0.00284048 -9.13233e-05)
(0.112821 -0.00278144 -9.92209e-05)
(0.111965 -0.00270069 -0.000108136)
(0.110941 -0.00259797 -0.000117535)
(0.109713 -0.00247422 -0.000126592)
(0.10825 -0.00233156 -0.000134692)
(0.106528 -0.00217318 -0.000142751)
(0.104527 -0.00199709 -0.000155177)
(0.102203 -0.00179896 -0.000170599)
(0.0995063 -0.0015793 -0.000186387)
(0.0963829 -0.00134092 -0.00020118)
(0.0927799 -0.00108785 -0.000213102)
(0.0886446 -0.000826578 -0.000218892)
(0.0839337 -0.000567183 -0.000213879)
(0.0786262 -0.000324012 -0.000192749)
(0.0727384 -0.000115165 -0.000151475)
(0.0663371 4.00994e-05 -9.05741e-05)
(0.0595422 0.000126007 -1.87608e-05)
(0.052512 0.000139614 4.39613e-05)
(0.0454008 0.000102648 7.42563e-05)
(0.0383118 5.21818e-05 6.89369e-05)
(0.0312895 1.48343e-05 4.54627e-05)
(0.0243391 -2.81083e-06 2.17333e-05)
(0.0174396 -6.15137e-06 6.15129e-06)
(0.0105499 -3.27046e-06 -2.08378e-07)
(0.00361086 -2.50543e-07 -4.84596e-07)
(0.163564 -0.00022013 -6.0294e-05)
(0.16371 -0.000647632 -6.24118e-05)
(0.163977 -0.00104863 -6.46938e-05)
(0.164335 -0.00142032 -6.81902e-05)
(0.164748 -0.00176029 -7.26516e-05)
(0.165175 -0.00206777 -7.78789e-05)
(0.165578 -0.00234268 -8.36119e-05)
(0.165922 -0.00258596 -8.96002e-05)
(0.166179 -0.00279926 -9.55685e-05)
(0.166329 -0.00298489 -0.000101277)
(0.16636 -0.00314553 -0.000106529)
(0.166269 -0.00328405 -0.000111219)
(0.166061 -0.0034031 -0.000115334)
(0.16575 -0.00350517 -0.000118964)
(0.165351 -0.00359194 -0.000122429)
(0.164881 -0.00366442 -0.000126013)
(0.164355 -0.00372284 -0.000130201)
(0.163785 -0.00376668 -0.000135408)
(0.163175 -0.00379476 -0.000142222)
(0.162523 -0.00380534 -0.000151051)
(0.161818 -0.00379638 -0.000162277)
(0.161038 -0.00376565 -0.000176115)
(0.160154 -0.00371117 -0.000192833)
(0.159127 -0.00363122 -0.000212308)
(0.157915 -0.00352479 -0.0002341)
(0.156469 -0.00339166 -0.000257385)
(0.15474 -0.00323265 -0.00028081)
(0.152683 -0.00304993 -0.00030316)
(0.150263 -0.00284759 -0.000325475)
(0.147449 -0.0026248 -0.000354213)
(0.144183 -0.00237825 -0.000387157)
(0.140395 -0.00210948 -0.000420037)
(0.136016 -0.00182179 -0.000450466)
(0.130971 -0.00151908 -0.000475009)
(0.125188 -0.0012072 -0.000487727)
(0.118604 -0.000895194 -0.000480061)
(0.111182 -0.000596299 -0.000441927)
(0.102933 -0.000328423 -0.000364753)
(0.0939308 -0.000113178 -0.000247109)
(0.0843252 2.60925e-05 -0.000102134)
(0.0743328 7.52194e-05 3.27052e-05)
(0.0641856 5.39525e-05 0.000106822)
(0.0540537 9.59415e-06 0.000108152)
(0.0440243 -2.12366e-05 6.99978e-05)
(0.0341237 -2.90975e-05 2.90974e-05)
(0.0243391 -2.17334e-05 2.81076e-06)
(0.0146335 -9.88254e-06 -6.48447e-06)
(0.0049578 -1.0077e-06 -3.69208e-06)
(0.208546 -0.000261085 0.000296475)
(0.208725 -0.000768251 0.000296072)
(0.209052 -0.00124421 0.000293565)
(0.20949 -0.00168586 0.000289661)
(0.209994 -0.00209053 0.000284511)
(0.210515 -0.00245731 0.000278191)
(0.211006 -0.00278598 0.000270865)
(0.211425 -0.00307747 0.000262721)
(0.211739 -0.00333343 0.000254014)
(0.211922 -0.00355627 0.000244999)
(0.211959 -0.0037488 0.000235903)
(0.211849 -0.00391406 0.000226858)
(0.211598 -0.00405495 0.000217893)
(0.211219 -0.00417416 0.000208894)
(0.210733 -0.00427364 0.000199428)
(0.210159 -0.00435464 0.000189094)
(0.209513 -0.0044176 0.000177198)
(0.208808 -0.00446225 0.000163112)
(0.20805 -0.00448763 0.000145952)
(0.207233 -0.00449231 0.000125062)
(0.206342 -0.00447443 9.9777e-05)
(0.205351 -0.00443188 6.96435e-05)
(0.204225 -0.00436291 3.41521e-05)
(0.202917 -0.00426614 -6.71214e-06)
(0.201375 -0.00414084 -5.25563e-05)
(0.199541 -0.00398684 -0.00010251)
(0.197358 -0.00380471 -0.000154962)
(0.19477 -0.00359596 -0.000208168)
(0.191731 -0.00336478 -0.000262409)
(0.188194 -0.0031128 -0.000323936)
(0.184091 -0.00284054 -0.000390727)
(0.179342 -0.00255103 -0.00045867)
(0.173864 -0.00224738 -0.000525318)
(0.167569 -0.00193236 -0.000586404)
(0.160368 -0.00160933 -0.000634136)
(0.152179 -0.00128305 -0.000656848)
(0.142946 -0.000960728 -0.000639713)
(0.132656 -0.000653821 -0.000567387)
(0.12136 -0.000380166 -0.000429889)
(0.109197 -0.000169882 -0.000232817)
(0.0963996 -5.82718e-05 -2.29497e-05)
(0.0832696 -4.00748e-05 0.000110066)
(0.0700666 -6.34768e-05 0.000128964)
(0.0569568 -7.93046e-05 7.93045e-05)
(0.0440243 -6.99979e-05 2.12365e-05)
(0.0312895 -4.54627e-05 -1.48344e-05)
(0.0187305 -1.99703e-05 -2.41639e-05)
(0.00630551 -2.27991e-06 -1.23289e-05)
(0.247884 -0.000288489 0.000480522)
(0.248086 -0.000849325 0.000478365)
(0.248456 -0.00137606 0.000471029)
(0.248952 -0.00186517 0.000460465)
(0.249521 -0.00231403 0.000447325)
(0.250108 -0.00272153 0.000432165)
(0.250661 -0.00308732 0.000415625)
(0.251134 -0.00341212 0.000398344)
(0.251487 -0.00369745 0.000380976)
(0.251694 -0.00394557 0.00036409)
(0.251739 -0.00415924 0.000348125)
(0.251618 -0.00434151 0.000333296)
(0.25134 -0.00449532 0.000319612)
(0.250918 -0.0046235 0.000306824)
(0.250374 -0.00472814 0.000294226)
(0.249727 -0.00481071 0.000281159)
(0.248995 -0.00487192 0.000266602)
(0.248189 -0.00491177 0.000249677)
(0.247313 -0.00492962 0.000229245)
(0.24636 -0.0049244 0.000204489)
(0.245309 -0.00489456 0.000174321)
(0.244133 -0.00483829 0.000138472)
(0.242788 -0.00475423 9.67526e-05)
(0.241227 -0.00464137 4.94674e-05)
(0.23939 -0.00449931 -2.62437e-06)
(0.237217 -0.00432808 -5.83308e-05)
(0.234645 -0.00412803 -0.000115697)
(0.231613 -0.00389945 -0.000172608)
(0.228066 -0.00364309 -0.000229669)
(0.22394 -0.00336456 -0.000306636)
(0.219165 -0.00307447 -0.00039407)
(0.21366 -0.00277746 -0.000481147)
(0.207337 -0.00247533 -0.000564993)
(0.200103 -0.00217014 -0.000641013)
(0.191861 -0.00186347 -0.000701574)
(0.182518 -0.00155616 -0.000735986)
(0.171998 -0.00124866 -0.000730916)
(0.160254 -0.000942686 -0.000671463)
(0.14729 -0.000644012 -0.000543155)
(0.13318 -0.000379256 -0.000335377)
(0.118097 -0.000203206 -8.15536e-05)
(0.102337 -0.000131962 9.51659e-05)
(0.0862323 -0.000125545 0.000125545)
(0.0700666 -0.000128964 6.34768e-05)
(0.0540537 -0.000108152 -9.59421e-06)
(0.0383118 -6.8937e-05 -5.21819e-05)
(0.0228595 -3.02175e-05 -5.72145e-05)
(0.00766173 -3.74596e-06 -2.84988e-05)
(0.281038 -0.000304976 0.0003231)
(0.28126 -0.000898112 0.000318389)
(0.281666 -0.00145544 0.000308835)
(0.282207 -0.00197321 0.000294985)
(0.282827 -0.00244876 0.000277675)
(0.283466 -0.0028808 0.00025764)
(0.284069 -0.00326873 0.000235714)
(0.284583 -0.00361306 0.000212738)
(0.284969 -0.00391503 0.000189569)
(0.285197 -0.00417673 0.000166965)
(0.28525 -0.0044008 0.000145515)
(0.285126 -0.00459018 0.000125525)
(0.284831 -0.00474781 0.000107043)
(0.284381 -0.00487658 8.9787e-05)
(0.283795 -0.00497871 7.28921e-05)
(0.283093 -0.00505581 5.55461e-05)
(0.28229 -0.00510876 3.64814e-05)
(0.281398 -0.00513779 1.46115e-05)
(0.280415 -0.00514239 -1.14788e-05)
(0.279332 -0.00512164 -4.27812e-05)
(0.278126 -0.00507414 -8.05994e-05)
(0.276764 -0.0049983 -0.000125297)
(0.275202 -0.00489284 -0.000177056)
(0.273387 -0.00475669 -0.000235467)
(0.27126 -0.00458943 -0.000299632)
(0.268758 -0.00439094 -0.000368315)
(0.265819 -0.00416133 -0.000439623)
(0.26238 -0.00390033 -0.000511618)
(0.258384 -0.00360618 -0.000582584)
(0.25377 -0.00329006 -0.000653352)
(0.248466 -0.00296855 -0.000723891)
(0.24239 -0.00264591 -0.000793135)
(0.235456 -0.00232315 -0.000859595)
(0.227572 -0.0020025 -0.000920151)
(0.218643 -0.0016863 -0.000968604)
(0.208572 -0.00137696 -0.000994512)
(0.197268 -0.00107766 -0.000982028)
(0.184658 -0.000793226 -0.000909824)
(0.170696 -0.000526461 -0.000753696)
(0.155377 -0.000294131 -0.000489089)
(0.138741 -0.000149642 -0.000149176)
(0.120957 -9.45014e-05 9.45019e-05)
(0.102337 -9.51657e-05 0.000131962)
(0.0832696 -0.000110066 4.00749e-05)
(0.0641856 -0.000106822 -5.39525e-05)
(0.0454008 -7.42564e-05 -0.000102648)
(0.0270218 -3.35899e-05 -0.000101505)
(0.00902765 -4.53549e-06 -5.07957e-05)
(0.309148 -0.000313596 0.000366565)
(0.309386 -0.000923374 0.000360837)
(0.309821 -0.00149631 0.000351215)
(0.3104 -0.00202877 0.00033696)
(0.311063 -0.00251785 0.000318781)
(0.311745 -0.00296209 0.000297274)
(0.312387 -0.00336062 0.000273173)
(0.312936 -0.0037137 0.000247271)
(0.313348 -0.00402232 0.000220438)
(0.313594 -0.00428835 0.000193488)
(0.313655 -0.00451425 0.000167092)
(0.313529 -0.00470286 0.000141634)
(0.313222 -0.00485705 0.000117226)
(0.312748 -0.0049797 9.36052e-05)
(0.312126 -0.00507305 6.98065e-05)
(0.311373 -0.00513875 4.49148e-05)
(0.310504 -0.00517774 1.74379e-05)
(0.309525 -0.00519029 -1.39401e-05)
(0.308434 -0.00517591 -5.09811e-05)
(0.307216 -0.00513362 -9.49304e-05)
(0.305847 -0.00506199 -0.000147344)
(0.30429 -0.00495945 -0.000208826)
(0.302501 -0.00482455 -0.000279885)
(0.300425 -0.00465597 -0.00036024)
(0.298005 -0.00445301 -0.000449047)
(0.295178 -0.00421535 -0.00054518)
(0.291883 -0.00394322 -0.000646802)
(0.288061 -0.00363768 -0.000752037)
(0.283654 -0.00330009 -0.000858232)
(0.278609 -0.00294006 -0.000951339)
(0.272857 -0.00256806 -0.00103717)
(0.266324 -0.0021891 -0.00112141)
(0.258934 -0.00180769 -0.00120221)
(0.250603 -0.00142983 -0.00127492)
(0.241241 -0.00106342 -0.00133132)
(0.23075 -0.00071838 -0.00135845)
(0.219027 -0.000406775 -0.0013378)
(0.205966 -0.000142502 -0.00124576)
(0.191469 6.90286e-05 -0.00105519)
(0.175469 0.000222797 -0.000720186)
(0.157911 0.0002256 -0.000225599)
(0.138741 0.000149177 0.000149643)
(0.118097 8.1554e-05 0.000203207)
(0.0963996 2.295e-05 5.8272e-05)
(0.0743328 -3.27051e-05 -7.52193e-05)
(0.052512 -4.39613e-05 -0.000139614)
(0.0311957 -2.31786e-05 -0.000139212)
(0.0103967 -3.65419e-06 -7.16697e-05)
(0.333354 -0.000316306 0.000545451)
(0.333605 -0.00093122 0.000538537)
(0.334062 -0.00150884 0.00052601)
(0.33467 -0.00204558 0.000507586)
(0.335364 -0.00253835 0.000484135)
(0.336077 -0.00298545 0.000456402)
(0.336748 -0.00338579 0.000425286)
(0.33732 -0.00373934 0.000391767)
(0.337749 -0.00404686 0.000356918)
(0.338005 -0.00431 0.000321744)
(0.33807 -0.00453103 0.000287083)
(0.337939 -0.00471266 0.000253411)
(0.337618 -0.00485762 0.00022089)
(0.337119 -0.00496872 0.00018922)
(0.33646 -0.0050481 0.000157258)
(0.335656 -0.00509738 0.000123922)
(0.334717 -0.00511739 8.74396e-05)
(0.333648 -0.00510835 4.62498e-05)
(0.332441 -0.00506961 -1.75245e-06)
(0.331081 -0.00500015 -5.80351e-05)
(0.329541 -0.00489843 -0.000124497)
(0.327784 -0.00476275 -0.000201801)
(0.325763 -0.00459158 -0.000290581)
(0.323427 -0.00438344 -0.000390495)
(0.32072 -0.00413766 -0.000500544)
(0.317583 -0.00385411 -0.000619448)
(0.313961 -0.00353369 -0.000744872)
(0.309796 -0.00317924 -0.00087407)
(0.305033 -0.00279579 -0.00100352)
(0.299621 -0.00238882 -0.00112892)
(0.293502 -0.00196381 -0.00125002)
(0.286617 -0.00152915 -0.00136578)
(0.278899 -0.0010951 -0.00147159)
(0.270273 -0.00067359 -0.00155949)
(0.260654 -0.000278805 -0.00161767)
(0.249943 7.33636e-05 -0.00163019)
(0.238023 0.000366447 -0.00157718)
(0.224759 0.000583888 -0.0014365)
(0.210001 0.00071896 -0.00118741)
(0.193607 0.000806766 -0.000806764)
(0.175469 0.000720187 -0.000222795)
(0.155377 0.000489089 0.000294132)
(0.13318 0.000335378 0.000379257)
(0.109197 0.000232817 0.000169882)
(0.0843252 0.000102134 -2.60922e-05)
(0.0595422 1.87608e-05 -0.000126006)
(0.0353258 -1.73595e-07 -0.000144343)
(0.0117515 -1.24037e-06 -7.96623e-05)
(0.354447 -0.000314585 0.00066575)
(0.354708 -0.000926101 0.000657795)
(0.355181 -0.00150029 0.000642543)
(0.355809 -0.00203346 0.000620172)
(0.356524 -0.00252235 0.000591662)
(0.357257 -0.00296503 0.000557858)
(0.357945 -0.0033602 0.000519779)
(0.35853 -0.00370756 0.00047856)
(0.358968 -0.00400764 0.000435449)
(0.359227 -0.00426189 0.000391635)
(0.359288 -0.0044724 0.000348108)
(0.359147 -0.0046417 0.000305439)
(0.358807 -0.00477235 0.000263839)
(0.35828 -0.00486704 0.000222974)
(0.357579 -0.00492774 0.000181506)
(0.356717 -0.00495588 0.000138181)
(0.355702 -0.00495214 9.09097e-05)
(0.354533 -0.00491654 3.78636e-05)
(0.353203 -0.00484828 -2.34594e-05)
(0.351692 -0.00474624 -9.47451e-05)
(0.349973 -0.00460876 -0.000178302)
(0.348008 -0.00443411 -0.000274882)
(0.345754 -0.00422085 -0.000385313)
(0.343161 -0.00396762 -0.000509209)
(0.340178 -0.00367423 -0.000645338)
(0.336753 -0.00334122 -0.000792121)
(0.332833 -0.00297054 -0.0009463)
(0.328369 -0.00256662 -0.0011037)
(0.323311 -0.00213628 -0.00125896)
(0.317611 -0.00168616 -0.001406)
(0.311222 -0.00122404 -0.00154297)
(0.304091 -0.000761884 -0.00166732)
(0.29616 -0.000314069 -0.0017726)
(0.287359 0.00010361 -0.00184851)
(0.277602 0.000474299 -0.00188086)
(0.266789 0.000781486 -0.00185188)
(0.254795 0.00101077 -0.00174101)
(0.241465 0.00114894 -0.00152722)
(0.226599 0.00119419 -0.00119419)
(0.210001 0.00118741 -0.000718958)
(0.191469 0.00105519 -6.90264e-05)
(0.170696 0.000753696 0.000526463)
(0.14729 0.000543156 0.000644013)
(0.12136 0.000429889 0.000380167)
(0.0939308 0.000247109 0.000113178)
(0.066337 9.05741e-05 -4.00989e-05)
(0.039326 2.60811e-05 -9.92787e-05)
(0.0130648 1.388e-06 -6.66597e-05)
(0.373071 -0.000309564 0.000777695)
(0.373338 -0.000911214 0.000768371)
(0.373822 -0.00147573 0.00075047)
(0.374462 -0.00199924 0.000724213)
(0.375189 -0.00247832 0.000690645)
(0.375933 -0.00291081 0.000650683)
(0.376628 -0.00329516 0.000605445)
(0.377218 -0.00363085 0.000556201)
(0.377656 -0.00391822 0.000504368)
(0.37791 -0.00415848 0.000451313)
(0.377961 -0.00435357 0.00039818)
(0.377803 -0.00450583 0.000345625)
(0.377438 -0.00461761 0.000293905)
(0.376875 -0.0046914 0.000242642)
(0.376125 -0.00472893 0.000190275)
(0.375196 -0.0047314 0.000135362)
(0.374095 -0.00469923 7.54653e-05)
(0.372818 -0.00463226 8.47596e-06)
(0.371354 -0.0045295 -6.85343e-05)
(0.369682 -0.0043898 -0.000157464)
(0.367776 -0.00421152 -0.00026105)
(0.365599 -0.00399312 -0.000380058)
(0.363111 -0.00373359 -0.000515493)
(0.360267 -0.00343217 -0.00066677)
(0.357022 -0.00308975 -0.000832193)
(0.353331 -0.00270814 -0.00100967)
(0.349147 -0.00229091 -0.00119459)
(0.344428 -0.00184451 -0.001381)
(0.33913 -0.00137792 -0.00156191)
(0.333211 -0.000900971 -0.00173016)
(0.326627 -0.000425213 -0.00188103)
(0.319332 3.44965e-05 -0.00200888)
(0.311268 0.000461693 -0.00210469)
(0.302368 0.000839578 -0.00215587)
(0.292546 0.00115195 -0.00214667)
(0.281696 0.00138486 -0.00205918)
(0.269685 0.00152857 -0.00187448)
(0.256352 0.00157436 -0.00157436)
(0.241465 0.00152722 -0.00114894)
(0.224759 0.0014365 -0.000583886)
(0.205966 0.00124577 0.000142505)
(0.184658 0.000909824 0.000793228)
(0.160254 0.000671463 0.000942687)
(0.132656 0.000567387 0.000653822)
(0.102933 0.000364753 0.000328424)
(0.0727384 0.000151475 0.000115166)
(0.0431038 4.74517e-05 -2.96017e-06)
(0.0143064 3.27216e-06 -3.18025e-05)
(0.389741 -0.00030199 0.000895058)
(0.390012 -0.000888732 0.000884216)
(0.390502 -0.00143865 0.000863476)
(0.391148 -0.00194767 0.000833041)
(0.391879 -0.00241215 0.00079401)
(0.392625 -0.00282971 0.00074737)
(0.393319 -0.00319857 0.000694329)
(0.393904 -0.00351799 0.000636297)
(0.394334 -0.00378811 0.000574863)
(0.394575 -0.00400997 0.000511573)
(0.394609 -0.00418531 0.000447724)
(0.394426 -0.00431626 0.000384039)
(0.394028 -0.00440491 0.000320807)
(0.39342 -0.00445354 0.000257591)
(0.392611 -0.00446357 0.000192554)
(0.391606 -0.00443595 0.000124058)
(0.390408 -0.0043708 4.92711e-05)
(0.389011 -0.00426783 -3.41806e-05)
(0.387402 -0.00412594 -0.000129673)
(0.385561 -0.00394415 -0.000239235)
(0.383462 -0.00372106 -0.000366041)
(0.38107 -0.00345573 -0.00051067)
(0.378351 -0.00314811 -0.000674207)
(0.375265 -0.00279858 -0.000855565)
(0.371774 -0.00240987 -0.00105221)
(0.367841 -0.00198567 -0.00126132)
(0.363426 -0.00153161 -0.00147645)
(0.358493 -0.00105649 -0.00168949)
(0.353004 -0.000571732 -0.0018913)
(0.346918 -9.01486e-05 -0.00207307)
(0.340196 0.000373787 -0.00222701)
(0.332792 0.000803598 -0.00234452)
(0.324649 0.00118262 -0.00241457)
(0.315699 0.0014953 -0.00242327)
(0.305854 0.00172826 -0.0023547)
(0.295004 0.00187176 -0.00219237)
(0.283007 0.00192077 -0.00192077)
(0.269685 0.00187448 -0.00152856)
(0.254795 0.00174101 -0.00101077)
(0.238023 0.00157718 -0.000366444)
(0.219027 0.00133781 0.000406778)
(0.197268 0.000982028 0.00107766)
(0.171998 0.000730916 0.00124867)
(0.142946 0.000639713 0.00096073)
(0.111182 0.000441927 0.0005963)
(0.0786262 0.000192749 0.000324013)
(0.0465854 6.04064e-05 0.00013465)
(0.0154518 4.0912e-06 2.06813e-05)
(0.404852 -0.000292344 0.00101534)
(0.405124 -0.000860081 0.00100289)
(0.405614 -0.00139137 0.000979041)
(0.40626 -0.00188191 0.000944034)
(0.406988 -0.0023278 0.000899023)
(0.407728 -0.00272642 0.000845057)
(0.408413 -0.0030758 0.000783439)
(0.408985 -0.00337498 0.000715719)
(0.409398 -0.0036239 0.000643661)
(0.409618 -0.00382341 0.000568992)
(0.409625 -0.00397506 0.000493151)
(0.409409 -0.00408073 0.000416905)
(0.408968 -0.00414222 0.000340558)
(0.408305 -0.0041616 0.000263594)
(0.407426 -0.00413994 0.000183846)
(0.406334 -0.00407793 9.94781e-05)
(0.405027 -0.00397549 7.23768e-06)
(0.403499 -0.00383229 -9.54647e-05)
(0.401736 -0.00364729 -0.000212459)
(0.399718 -0.00341999 -0.000345724)
(0.397421 -0.00314962 -0.000498854)
(0.394815 -0.00283634 -0.000671857)
(0.391871 -0.00248167 -0.000865718)
(0.388555 -0.00208771 -0.00107845)
(0.384836 -0.00165972 -0.00130619)
(0.380684 -0.00120371 -0.00154519)
(0.376069 -0.000727614 -0.00178693)
(0.370957 -0.000242324 -0.00202086)
(0.365316 0.000238805 -0.00223526)
(0.359106 0.000701233 -0.00241905)
(0.352287 0.00112912 -0.00256158)
(0.344812 0.00150582 -0.00265232)
(0.336624 0.00181596 -0.0026793)
(0.327654 0.00204672 -0.00262873)
(0.317811 0.00218878 -0.00248593)
(0.306977 0.00223712 -0.00223711)
(0.295004 0.00219238 -0.00187175)
(0.281695 0.00205918 -0.00138486)
(0.266789 0.00185188 -0.000781483)
(0.249943 0.00163019 -7.33599e-05)
(0.23075 0.00135845 0.000718383)
(0.208572 0.000994513 0.00137696)
(0.182518 0.000735986 0.00155616)
(0.152179 0.000656848 0.00128306)
(0.118604 0.000480061 0.000895196)
(0.0839337 0.000213879 0.000567184)
(0.0497275 6.48649e-05 0.000299309)
(0.0164861 3.90283e-06 8.45376e-05)
(0.418703 -0.000280935 0.00113645)
(0.418974 -0.000826182 0.00112224)
(0.419461 -0.00133542 0.00109499)
(0.4201 -0.00180404 0.00105498)
(0.420818 -0.00222788 0.00100342)
(0.421544 -0.00260409 0.000941422)
(0.422212 -0.00293048 0.000870383)
(0.422762 -0.00320588 0.000791994)
(0.42315 -0.00343004 0.000708194)
(0.42334 -0.00360359 0.000620885)
(0.423311 -0.00372788 0.000531637)
(0.423051 -0.00380452 0.000441229)
(0.422556 -0.00383499 0.000349967)
(0.421827 -0.00382115 0.00025724)
(0.420866 -0.00376377 0.000160493)
(0.419674 -0.00366334 5.77217e-05)
(0.418247 -0.00351969 -5.47663e-05)
(0.416577 -0.00333272 -0.000179673)
(0.414651 -0.00310162 -0.000321258)
(0.412451 -0.00282687 -0.000481112)
(0.409955 -0.00250869 -0.00066318)
(0.407138 -0.00214892 -0.000866316)
(0.403976 -0.00175123 -0.00109105)
(0.400444 -0.00131988 -0.00133416)
(0.396516 -0.000863066 -0.00158999)
(0.392168 -0.000389403 -0.00185358)
(0.387376 9.05324e-05 -0.00211461)
(0.382114 0.000564631 -0.00236048)
(0.37635 0.00101894 -0.00257684)
(0.370048 0.00143924 -0.00274999)
(0.363162 0.00180998 -0.00286631)
(0.355644 0.00211559 -0.0029142)
(0.347434 0.00234297 -0.00288228)
(0.338459 0.00248286 -0.00275838)
(0.328626 0.00253045 -0.00253045)
(0.317811 0.00248593 -0.00218878)
(0.305854 0.0023547 -0.00172826)
(0.292546 0.00214667 -0.00115195)
(0.277602 0.00188086 -0.000474295)
(0.260654 0.00161767 0.000278809)
(0.241241 0.00133132 0.00106343)
(0.218643 0.000968604 0.0016863)
(0.191861 0.000701575 0.00186347)
(0.160368 0.000634136 0.00160933)
(0.125188 0.000487727 0.0012072)
(0.0886445 0.000218892 0.00082658)
(0.0525174 6.26858e-05 0.000476923)
(0.0174048 2.9758e-06 0.000153597)
(0.431527 -0.000267959 0.00125752)
(0.431793 -0.000787616 0.00124137)
(0.432273 -0.00127173 0.00121039)
(0.4329 -0.00171536 0.00116488)
(0.433601 -0.00211406 0.00110612)
(0.434306 -0.00246474 0.00103529)
(0.434948 -0.00276498 0.000953886)
(0.435468 -0.00301339 0.000863727)
(0.435821 -0.0032095 0.000766925)
(0.435971 -0.00335372 0.000665553)
(0.435896 -0.00344716 0.000561296)
(0.435581 -0.00349116 0.000454909)
(0.43502 -0.00348687 0.000346695)
(0.434212 -0.00343601 0.000235949)
(0.433156 -0.00333912 0.000119662)
(0.431851 -0.00319667 -4.26966e-06)
(0.430292 -0.00300857 -0.000139972)
(0.42847 -0.00277525 -0.000290054)
(0.426375 -0.00249646 -0.000459109)
(0.423989 -0.00217412 -0.000647821)
(0.421295 -0.0018098 -0.000860189)
(0.418274 -0.00140742 -0.00109335)
(0.414905 -0.000973326 -0.00134677)
(0.41117 -0.000514658 -0.00161605)
(0.407051 -4.18894e-05 -0.00189423)
(0.402527 0.000433827 -0.00217749)
(0.397579 0.0008976 -0.00244901)
(0.392186 0.00133774 -0.00269396)
(0.386322 0.00174188 -0.00289674)
(0.379949 0.00209937 -0.00304488)
(0.373019 0.00239609 -0.00312203)
(0.365475 0.00261837 -0.00311359)
(0.357256 0.00275562 -0.00300993)
(0.348283 0.00280233 -0.00280232)
(0.338459 0.00275838 -0.00248286)
(0.327654 0.00262873 -0.00204672)
(0.315699 0.00242327 -0.00149529)
(0.302368 0.00215588 -0.000839573)
(0.287359 0.00184851 -0.000103606)
(0.270273 0.00155949 0.000673594)
(0.250603 0.00127492 0.00142984)
(0.227572 0.000920151 0.0020025)
(0.200103 0.000641014 0.00217014)
(0.167569 0.000586404 0.00193236)
(0.130971 0.000475009 0.00151908)
(0.0927799 0.000213102 0.00108786)
(0.0549658 5.62366e-05 0.000656102)
(0.018211 1.61095e-06 0.000222956)
(0.443502 -0.000253534 0.00137771)
(0.443763 -0.000744729 0.00135942)
(0.444231 -0.00120089 0.0013243)
(0.44484 -0.00161671 0.00127273)
(0.445518 -0.00198743 0.00120604)
(0.446193 -0.00230969 0.00112549)
(0.446801 -0.00258084 0.00103264)
(0.447282 -0.00279925 0.000929465)
(0.447591 -0.0029642 0.000818233)
(0.44769 -0.00307584 0.000701181)
(0.447557 -0.00313505 0.000580095)
(0.447174 -0.00314289 0.000455672)
(0.446534 -0.00310021 0.000328217)
(0.445633 -0.00300878 0.000196952)
(0.444468 -0.00286899 5.83428e-05)
(0.443037 -0.00268154 -8.96292e-05)
(0.441335 -0.00244669 -0.000251463)
(0.439353 -0.0021658 -0.000429285)
(0.437083 -0.00183944 -0.000627768)
(0.434512 -0.00147122 -0.000846141)
(0.431623 -0.00106468 -0.00108785)
(0.428406 -0.000625976 -0.00134914)
(0.424843 -0.00016406 -0.00163264)
(0.420922 0.000308416 -0.0019288)
(0.416631 0.000779159 -0.00222465)
(0.411954 0.00123438 -0.00251119)
(0.40687 0.0016606 -0.00277717)
(0.401362 0.00204793 -0.00300776)
(0.395404 0.0023861 -0.00318522)
(0.388967 0.00266526 -0.00329205)
(0.382004 0.00287372 -0.00331194)
(0.374448 0.00300655 -0.00323674)
(0.366226 0.0030528 -0.0030528)
(0.357256 0.00300994 -0.00275561)
(0.347434 0.00288228 -0.00234297)
(0.336624 0.0026793 -0.00181596)
(0.324649 0.00241457 -0.00118261)
(0.311268 0.00210469 -0.000461688)
(0.29616 0.0017726 0.000314073)
(0.278899 0.00147159 0.00109511)
(0.258934 0.00120221 0.00180769)
(0.235456 0.000859595 0.00232316)
(0.207337 0.000564994 0.00247533)
(0.173864 0.000525319 0.00224739)
(0.136016 0.000450466 0.00182179)
(0.0963829 0.00020118 0.00134092)
(0.0570974 4.75625e-05 0.000828852)
(0.0189127 5.16745e-08 0.000289267)
(0.454771 -0.000237723 0.00149604)
(0.455023 -0.000697716 0.00147538)
(0.455475 -0.00112324 0.00143568)
(0.456061 -0.00150856 0.00137739)
(0.456709 -0.00184859 0.00130195)
(0.457348 -0.00213971 0.00121065)
(0.457913 -0.00237897 0.00110515)
(0.458345 -0.00256449 0.000987543)
(0.458598 -0.00269524 0.000860256)
(0.458635 -0.0027711 0.000725685)
(0.45843 -0.00279274 0.000585713)
(0.457966 -0.00276099 0.000440929)
(0.457232 -0.00267648 0.00029167)
(0.456222 -0.00254124 0.000137184)
(0.454934 -0.00235572 -2.65917e-05)
(0.453364 -0.00212119 -0.000201223)
(0.451508 -0.00183848 -0.000391359)
(0.44936 -0.00151018 -0.000598163)
(0.446912 -0.00113847 -0.000826035)
(0.444157 -0.000728045 -0.00107388)
(0.441081 -0.000286021 -0.0013517)
(0.437681 0.000175046 -0.00164446)
(0.433947 0.000643148 -0.00194643)
(0.429867 0.0011035 -0.00225122)
(0.425428 0.00154556 -0.00254909)
(0.420617 0.00195721 -0.00282568)
(0.415417 0.00232893 -0.00307265)
(0.409805 0.00265143 -0.00327527)
(0.403759 0.00291621 -0.00341651)
(0.39725 0.003115 -0.00347654)
(0.390242 0.00323741 -0.00343365)
(0.382672 0.00327624 -0.00327624)
(0.374448 0.00323674 -0.00300655)
(0.365475 0.00311359 -0.00261837)
(0.355644 0.0029142 -0.00211559)
(0.344812 0.00265232 -0.00150582)
(0.332792 0.00234452 -0.000803594)
(0.319332 0.00200888 -3.44914e-05)
(0.304091 0.00166732 0.000761889)
(0.286617 0.00136578 0.00152915)
(0.266324 0.00112141 0.0021891)
(0.24239 0.000793135 0.00264591)
(0.21366 0.000481147 0.00277746)
(0.179342 0.000458671 0.00255103)
(0.140395 0.000420036 0.00210948)
(0.0995063 0.000186387 0.0015793)
(0.0589436 3.80664e-05 0.000990141)
(0.0195202 -1.54405e-06 0.000350508)
(0.465444 -0.000220554 0.00161144)
(0.465686 -0.000646667 0.00158813)
(0.466119 -0.00103892 0.00154335)
(0.466676 -0.00139116 0.00147763)
(0.467286 -0.00169789 0.00139249)
(0.467881 -0.0019552 0.0012893)
(0.468393 -0.00215983 0.00116977)
(0.468766 -0.00230957 0.00103613)
(0.468951 -0.00240308 0.000890938)