/*--------------------------------*- C++ -*----------------------------------*\
| =========                 |                                                 |
| \\      /  F ield         | OpenFOAM: The Open Source CFD Toolbox           |
|  \\    /   O peration     | Version:  2412                                  |
|   \\  /    A nd           | Website:  www.openfoam.com                      |
|    \\/     M anipulation  |                                                 |
\*---------------------------------------------------------------------------*/
FoamFile
{
    version     2.0;
    format      ascii;
    arch        "LSB;label=32;scalar=64";
    class       volVectorField;
    location    "1830";
    object      vorticity;
}
// * * * * * * * * * * * * * * * * * * * * * * * * * * * * * * * * * * * * * //

dimensions      [0 0 -1 0 0 0 0];

internalField   nonuniform List<vector> 
2304
(
(0.0235369 15.0972 -0.000422782)
(0.0692459 15.111 -0.00123223)
(0.112098 15.1362 -0.00194898)
(0.151733 15.17 -0.00251151)
(0.187872 15.209 -0.0028598)
(0.220435 15.2494 -0.00295937)
(0.249426 15.2877 -0.00279071)
(0.274983 15.3204 -0.00235412)
(0.297328 15.3449 -0.00167083)
(0.316769 15.3593 -0.000782973)
(0.333655 15.3625 0.000251821)
(0.348353 15.3541 0.00136739)
(0.361201 15.3349 0.00249623)
(0.372505 15.3059 0.00357572)
(0.382462 15.2687 0.00456734)
(0.391175 15.2251 0.0054576)
(0.39864 15.1763 0.0062602)
(0.404748 15.1237 0.0070193)
(0.409296 15.0677 0.00781315)
(0.411997 15.0081 0.00875356)
(0.412529 14.9438 0.00998711)
(0.410556 14.873 0.0116896)
(0.405754 14.7928 0.0140503)
(0.397821 14.6996 0.0172706)
(0.386562 14.5892 0.021548)
(0.371929 14.4569 0.0270517)
(0.35409 14.298 0.0338686)
(0.333431 14.1084 0.0419694)
(0.310437 13.8852 0.051334)
(0.284604 13.6258 0.0623966)
(0.254997 13.3246 0.0758417)
(0.221558 12.9746 0.0920944)
(0.184705 12.5689 0.111482)
(0.145131 12.1004 0.134318)
(0.104024 11.5622 0.16072)
(0.0632822 10.949 0.190355)
(0.0256161 10.2584 0.22221)
(-0.00563253 9.49339 0.254501)
(-0.0271259 8.66345 0.284895)
(-0.0366343 7.78488 0.311169)
(-0.0346181 6.87798 0.332256)
(-0.0252745 5.9615 0.348948)
(-0.0145306 5.04744 0.36332)
(-0.00644063 4.14048 0.377546)
(-0.00198627 3.2402 0.393638)
(-0.000270167 2.34226 0.414372)
(5.65747e-05 1.43752 0.446036)
(5.25484e-09 0.507936 0.507936)
(0.0207477 14.9012 -0.00128484)
(0.0610562 14.9147 -0.00374509)
(0.0988651 14.9396 -0.00592337)
(0.133881 14.973 -0.00763228)
(0.165884 15.0114 -0.00868966)
(0.194802 15.0512 -0.00899069)
(0.220628 15.0887 -0.00847615)
(0.243462 15.1209 -0.00714692)
(0.263469 15.1449 -0.00506751)
(0.280879 15.159 -0.00236598)
(0.295959 15.1619 0.00078256)
(0.308989 15.1535 0.00417719)
(0.320231 15.1343 0.00761288)
(0.329923 15.1054 0.0108994)
(0.338225 15.0684 0.0139201)
(0.345228 15.0249 0.016634)
(0.350942 14.9763 0.0190832)
(0.355306 14.9238 0.0214018)
(0.358186 14.8678 0.0238276)
(0.3594 14.8081 0.0266991)
(0.358729 14.7438 0.0304611)
(0.355948 14.6728 0.0356488)
(0.350847 14.5924 0.0428357)
(0.343252 14.499 0.0526314)
(0.333066 14.3886 0.0656348)
(0.320282 14.2567 0.082362)
(0.305006 14.0985 0.103084)
(0.287426 13.9099 0.127715)
(0.267736 13.6881 0.15618)
(0.24584 13.4302 0.189791)
(0.221584 13.131 0.230617)
(0.19509 12.7837 0.279932)
(0.16669 12.3816 0.338722)
(0.13694 11.9179 0.40797)
(0.106704 11.3858 0.488091)
(0.0772081 10.7797 0.578168)
(0.0500158 10.0967 0.67525)
(0.0268514 9.33881 0.774023)
(0.00923507 8.5142 0.867358)
(-0.00197427 7.63822 0.94821)
(-0.00706375 6.73133 1.0129)
(-0.00761014 5.81378 1.06359)
(-0.00574663 4.89926 1.10662)
(-0.00331591 3.99384 1.14858)
(-0.00143203 3.09847 1.19499)
(-0.000383467 2.21104 1.25181)
(5.73036e-09 1.3278 1.3278)
(-5.65601e-05 0.446036 1.43752)
(0.0175777 14.5104 -0.00216456)
(0.0517445 14.5232 -0.00630858)
(0.083819 14.5465 -0.00997523)
(0.113583 14.5777 -0.0128493)
(0.140879 14.6137 -0.0146244)
(0.165646 14.6508 -0.0151241)
(0.187869 14.6859 -0.0142494)
(0.207605 14.7158 -0.0120017)
(0.224957 14.7381 -0.00848997)
(0.240074 14.751 -0.00392937)
(0.253131 14.7534 0.00138581)
(0.264316 14.7453 0.00711858)
(0.273809 14.727 0.0129253)
(0.281772 14.6996 0.0184877)
(0.288328 14.6644 0.0236112)
(0.293555 14.623 0.0282291)
(0.297482 14.5766 0.0324137)
(0.300095 14.526 0.0363925)
(0.301342 14.4718 0.0405661)
(0.30115 14.4137 0.0455006)
(0.299416 14.3506 0.0519442)
(0.296024 14.2807 0.0607971)
(0.290891 14.2014 0.0730174)
(0.283972 14.1095 0.0896219)
(0.275264 14.0011 0.111611)
(0.2648 13.8722 0.139859)
(0.252616 13.7184 0.174859)
(0.238684 13.5359 0.216522)
(0.222943 13.3213 0.26474)
(0.205703 13.0716 0.32165)
(0.187554 12.782 0.390637)
(0.168781 12.4466 0.473784)
(0.149586 12.0593 0.572762)
(0.130321 11.614 0.689303)
(0.111446 11.1043 0.824278)
(0.0934379 10.5243 0.976454)
(0.0766655 9.87011 1.14131)
(0.0612466 9.14137 1.31034)
(0.0469612 8.34287 1.47159)
(0.0334511 7.48629 1.61239)
(0.0208118 6.59061 1.72495)
(0.0101795 5.67808 1.81177)
(0.00325004 4.7662 1.88337)
(0.000253833 3.86486 1.95091)
(-0.000336676 2.97828 2.02307)
(3.05294e-09 2.10726 2.10726)
(0.000383477 1.25181 2.21105)
(0.000270181 0.414372 2.34226)
(0.0137606 13.5383 -0.00299435)
(0.0405277 13.549 -0.0087232)
(0.0656881 13.5686 -0.0137839)
(0.089103 13.5947 -0.0177434)
(0.110682 13.6247 -0.0201808)
(0.130374 13.6557 -0.0208544)
(0.148157 13.6848 -0.0196301)
(0.164043 13.7096 -0.0165122)
(0.178073 13.7281 -0.0116525)
(0.190311 13.7389 -0.00534733)
(0.20084 13.741 0.00199967)
(0.209755 13.7344 0.00992872)
(0.217151 13.7194 0.0179728)
(0.223118 13.6968 0.0257024)
(0.227736 13.6676 0.0328577)
(0.231071 13.6329 0.0393561)
(0.233167 13.5935 0.0453055)
(0.234058 13.55 0.0510279)
(0.233766 13.5025 0.0570821)
(0.232328 13.4506 0.0642541)
(0.22975 13.3933 0.0735734)
(0.226016 13.3288 0.0862604)
(0.221158 13.2552 0.103616)
(0.215255 13.1697 0.127022)
(0.208392 13.0694 0.157834)
(0.200646 12.951 0.197256)
(0.192007 12.8113 0.246058)
(0.182244 12.6468 0.304335)
(0.170955 12.4541 0.372137)
(0.158859 12.2295 0.452205)
(0.147429 11.9691 0.548829)
(0.137104 11.6689 0.66479)
(0.127938 11.3244 0.80249)
(0.120136 10.9306 0.964487)
(0.113848 10.4819 1.15234)
(0.108904 9.97305 1.36507)
(0.104541 9.39865 1.59758)
(0.0991688 8.75446 1.83953)
(0.090354 8.03847 2.07521)
(0.0755027 7.25332 2.28583)
(0.0539979 6.41038 2.45673)
(0.0301168 5.53096 2.58739)
(0.0117612 4.63791 2.6908)
(0.00263187 3.74887 2.7826)
(-1.86165e-09 2.87528 2.87528)
(0.000336678 2.02306 2.97828)
(0.00143204 1.19499 3.09847)
(0.00198628 0.393638 3.2402)
(0.00958001 11.7921 -0.00366929)
(0.0282266 11.8 -0.0106823)
(0.0457814 11.8145 -0.0168601)
(0.0621817 11.8337 -0.0216791)
(0.0773828 11.8556 -0.0246334)
(0.091341 11.878 -0.0254334)
(0.10402 11.8991 -0.0239235)
(0.115394 11.9171 -0.020116)
(0.125446 11.9305 -0.0142008)
(0.134175 11.9385 -0.00653881)
(0.141588 11.9405 0.00238393)
(0.147708 11.9364 0.0120197)
(0.152562 11.9264 0.021818)
(0.156187 11.911 0.0312811)
(0.158624 11.8906 0.0401165)
(0.159924 11.8658 0.0482477)
(0.160138 11.8368 0.05583)
(0.15932 11.8039 0.0632782)
(0.157537 11.7666 0.0712924)
(0.154878 11.7244 0.0808534)
(0.151413 11.6761 0.0931953)
(0.147197 11.6206 0.109746)
(0.142331 11.5563 0.132052)
(0.136957 11.4815 0.161747)
(0.13121 11.3941 0.200412)
(0.125209 11.2925 0.249482)
(0.118959 11.1746 0.310001)
(0.112098 11.0382 0.382492)
(0.103605 10.8805 0.467593)
(0.0945068 10.6969 0.568246)
(0.087471 10.4856 0.688763)
(0.0830172 10.2451 0.832447)
(0.081033 9.973 1.00245)
(0.081815 9.66636 1.20213)
(0.085605 9.3218 1.43394)
(0.092202 8.93513 1.69798)
(0.100572 8.5007 1.9904)
(0.108398 8.01084 2.30188)
(0.111569 7.45576 2.61654)
(0.104036 6.82486 2.91169)
(0.0804507 6.11234 3.16305)
(0.045022 5.32744 3.36008)
(0.0145929 4.49289 3.51194)
(-1.24798e-08 3.63595 3.63595)
(-0.00263188 2.7826 3.74887)
(-0.000253835 1.9509 3.86486)
(0.00331591 1.14858 3.99384)
(0.00644065 0.377546 4.14048)
(0.00584714 9.69479 -0.0041602)
(0.0172292 9.70057 -0.0121041)
(0.0279581 9.71108 -0.0190757)
(0.0380241 9.72486 -0.024489)
(0.047401 9.74044 -0.0277907)
(0.0560451 9.75634 -0.0286632)
(0.0639087 9.7712 -0.0269441)
(0.0709386 9.78389 -0.0226597)
(0.0770858 9.79354 -0.016032)
(0.0823064 9.79957 -0.00746696)
(0.0865675 9.80167 0.00249841)
(0.0898471 9.79976 0.0132687)
(0.0921363 9.79392 0.0242563)
(0.093434 9.78426 0.0349453)
(0.0937564 9.77089 0.0450487)
(0.0931345 9.75383 0.0545229)
(0.0916076 9.7329 0.0635838)
(0.0892249 9.70775 0.0727347)
(0.0860399 9.6778 0.082792)
(0.0821062 9.64227 0.0948722)
(0.0775006 9.60021 0.110326)
(0.0723257 9.55062 0.130686)
(0.0666688 9.49248 0.157617)
(0.0606253 9.42481 0.192855)
(0.0542933 9.34673 0.238057)
(0.0477659 9.2575 0.294738)
(0.0410645 9.15646 0.364119)
(0.0338047 9.04273 0.447163)
(0.0236252 8.91487 0.545549)
(0.0124176 8.77092 0.662021)
(0.00455346 8.61016 0.799857)
(-0.00014228 8.43244 0.962665)
(-0.00231781 8.23739 1.15423)
(-0.00153311 8.02447 1.37841)
(0.00279059 7.79275 1.63845)
(0.0111265 7.54014 1.93603)
(0.023684 7.26221 2.26995)
(0.0400939 6.95083 2.63489)
(0.058329 6.59292 3.01995)
(0.0714074 6.16949 3.40601)
(0.0650921 5.65488 3.76365)
(0.0336571 5.03181 4.06665)
(-3.70669e-08 4.30759 4.30759)
(-0.0145929 3.51194 4.49289)
(-0.0117612 2.6908 4.63792)
(-0.00325005 1.88337 4.7662)
(0.00574664 1.10662 4.89926)
(0.0145306 0.363319 5.04744)
(0.00312937 7.83127 -0.00455589)
(0.00921385 7.83582 -0.0132545)
(0.0149375 7.8441 -0.0208587)
(0.0203066 7.85483 -0.0267277)
(0.0252962 7.86685 -0.0302892)
(0.0298602 7.87904 -0.03121)
(0.033947 7.8904 -0.0293313)
(0.0374963 7.90014 -0.0246969)
(0.0404504 7.90766 -0.0175575)
(0.0427538 7.91259 -0.00835166)
(0.0443596 7.91474 0.00235392)
(0.0452292 7.914 0.0139437)
(0.0453341 7.91032 0.0258257)
(0.0446489 7.9036 0.0375012)
(0.0431643 7.89366 0.0487172)
(0.0408822 7.88018 0.059484)
(0.0378098 7.8627 0.0700902)
(0.0339594 7.84058 0.0811251)
(0.0293402 7.81308 0.0934956)
(0.0239509 7.77938 0.108387)
(0.0178244 7.73872 0.127223)
(0.0110298 7.69031 0.151592)
(0.00359403 7.63354 0.183175)
(-0.0044668 7.56798 0.223696)
(-0.0131352 7.49346 0.274783)
(-0.0223807 7.41003 0.337927)
(-0.0321528 7.31784 0.414407)
(-0.0423392 7.21692 0.50531)
(-0.0530492 7.10715 0.612065)
(-0.0638626 6.98967 0.737553)
(-0.074623 6.86481 0.885396)
(-0.0851564 6.73336 1.05887)
(-0.0949272 6.59668 1.26155)
(-0.102962 6.4561 1.49739)
(-0.107667 6.31245 1.77024)
(-0.106736 6.16511 2.08322)
(-0.0972188 6.01064 2.43803)
(-0.0761294 5.84138 2.83384)
(-0.0424427 5.64436 3.26658)
(-0.00489917 5.40167 3.72892)
(0.0171256 5.08422 4.20114)
(-4.94995e-08 4.64728 4.64728)
(-0.0336572 4.06665 5.03181)
(-0.0450221 3.36008 5.32744)
(-0.0301168 2.58739 5.53096)
(-0.0101795 1.81177 5.67808)
(0.00761014 1.06359 5.81379)
(0.0252745 0.348948 5.9615)
(0.00128053 6.39133 -0.00489066)
(0.0037617 6.39488 -0.0142259)
(0.00606366 6.40127 -0.0223519)
(0.00818613 6.40942 -0.0285834)
(0.0101055 6.41844 -0.032343)
(0.0117744 6.42747 -0.0332908)
(0.0131434 6.43579 -0.0312765)
(0.0141558 6.44283 -0.0263628)
(0.0147574 6.44821 -0.0188242)
(0.0148942 6.45168 -0.00912085)
(0.0145167 6.45306 0.00216684)
(0.0135784 6.45223 0.0144239)
(0.0120358 6.44902 0.0270767)
(0.00984026 6.44316 0.0396663)
(0.00695332 6.43426 0.0519912)
(0.00334224 6.42181 0.0641266)
(-0.00102604 6.40516 0.0764354)
(-0.00618275 6.38359 0.0895823)
(-0.01216 6.3563 0.104534)
(-0.0189839 6.3226 0.122507)
(-0.0266591 6.28186 0.14495)
(-0.0351655 6.23364 0.173451)
(-0.0444989 6.17771 0.209637)
(-0.0546441 6.11416 0.255146)
(-0.0655772 6.04336 0.31151)
(-0.0772305 5.96592 0.380145)
(-0.0894446 5.88254 0.462323)
(-0.101755 5.79385 0.559206)
(-0.112417 5.70027 0.671913)
(-0.12264 5.60261 0.802921)
(-0.135189 5.50306 0.955648)
(-0.14905 5.40412 1.13302)
(-0.162271 5.30814 1.33835)
(-0.173024 5.2172 1.57566)
(-0.178928 5.13257 1.84953)
(-0.177046 5.05394 2.16491)
(-0.164208 4.97813 2.52679)
(-0.137407 4.8977 2.9391)
(-0.0928121 4.79985 3.4024)
(-0.0369481 4.66808 3.91632)
(7.37258e-09 4.48385 4.48386)
(-0.0171257 4.20114 5.08422)
(-0.0650922 3.76365 5.65488)
(-0.0804508 3.16305 6.11234)
(-0.0539979 2.45673 6.41038)
(-0.0208118 1.72495 6.59061)
(0.00706374 1.0129 6.73133)
(0.0346181 0.332256 6.87798)
(-1.49372e-05 5.2894 -0.0051527)
(-5.88997e-05 5.29199 -0.0149721)
(-0.000164011 5.29652 -0.0234756)
(-0.000341971 5.30217 -0.0299553)
(-0.000613009 5.30828 -0.0338335)
(-0.00102323 5.31423 -0.0347701)
(-0.00161793 5.31954 -0.0326259)
(-0.00244723 5.32382 -0.0274805)
(-0.00355918 5.32685 -0.019625)
(-0.00500413 5.32844 -0.00952901)
(-0.00683307 5.32845 0.00222984)
(-0.00909962 5.3267 0.015055)
(-0.0118621 5.32291 0.0284098)
(-0.0151919 5.3167 0.0418889)
(-0.0191552 5.30754 0.0553516)
(-0.0238153 5.2948 0.0689389)
(-0.0292386 5.27777 0.0830791)
(-0.0354873 5.2557 0.0984917)
(-0.0426164 5.22789 0.116169)
(-0.050661 5.1938 0.13733)
(-0.0596326 5.153 0.163394)
(-0.0695082 5.1054 0.195878)
(-0.0802511 5.05119 0.236301)
(-0.0917803 4.99088 0.286161)
(-0.103983 4.9253 0.346852)
(-0.116666 4.85549 0.419681)
(-0.129513 4.78256 0.505873)
(-0.142011 4.70759 0.606621)
(-0.153355 4.63151 0.723217)
(-0.164082 4.55499 0.857399)
(-0.174723 4.48043 1.01148)
(-0.184095 4.41044 1.18827)
(-0.190385 4.34708 1.39122)
(-0.191652 4.2919 1.62465)
(-0.185839 4.24561 1.89389)
(-0.170994 4.20772 2.2055)
(-0.145678 4.17585 2.56747)
(-0.109205 4.14418 2.98864)
(-0.0611254 4.10071 3.47568)
(5.16625e-08 4.03046 4.03046)
(0.0369481 3.91632 4.66808)
(0.0048991 3.72892 5.40168)
(-0.0714076 3.40601 6.16949)
(-0.104036 2.91169 6.82486)
(-0.0755027 2.28583 7.25332)
(-0.0334511 1.61239 7.4863)
(0.00197424 0.94821 7.63822)
(0.0366343 0.311169 7.78489)
(-0.000906334 4.4323 -0.00534645)
(-0.00269566 4.43408 -0.0155126)
(-0.00447984 4.43708 -0.024267)
(-0.0062811 4.44069 -0.0308933)
(-0.00812074 4.44442 -0.0348172)
(-0.0100434 4.44785 -0.0357029)
(-0.0120889 4.45066 -0.0334234)
(-0.0142988 4.45262 -0.0280712)
(-0.0167132 4.45357 -0.0199465)
(-0.0193769 4.45339 -0.00951637)
(-0.0223406 4.45192 0.00265759)
(-0.0256633 4.44892 0.0160115)
(-0.029416 4.44406 0.0300574)
(-0.0336898 4.43686 0.0444519)
(-0.038574 4.42671 0.059117)
(-0.044157 4.41294 0.0742542)
(-0.0505297 4.39484 0.0903429)
(-0.0577738 4.37172 0.108133)
(-0.0659513 4.34301 0.128611)
(-0.0750966 4.30834 0.152968)
(-0.0852062 4.26755 0.182543)
(-0.0962164 4.22083 0.218727)
(-0.108027 4.16875 0.262887)
(-0.120455 4.11215 0.316352)
(-0.133256 4.05219 0.380338)
(-0.146075 3.99022 0.456013)
(-0.158416 3.92766 0.544515)
(-0.169678 3.86582 0.646968)
(-0.179205 3.80598 0.7646)
(-0.186672 3.74932 0.898822)
(-0.191592 3.6973 1.05154)
(-0.192807 3.65137 1.22546)
(-0.188852 3.61267 1.42421)
(-0.178273 3.58191 1.65244)
(-0.159819 3.55911 1.91606)
(-0.132626 3.54347 2.22251)
(-0.0965306 3.53326 2.58169)
(-0.0521937 3.52535 3.0073)
(6.0949e-08 3.51082 3.51082)
(0.0611255 3.47568 4.10071)
(0.0928121 3.4024 4.79985)
(0.0424426 3.26658 5.64437)
(-0.0583291 3.01995 6.59292)
(-0.111569 2.61654 7.45576)
(-0.090354 2.07521 8.03847)
(-0.0469613 1.47159 8.34287)
(-0.00923513 0.867357 8.51421)
(0.0271259 0.284895 8.66345)
(-0.00152694 3.76439 -0.00547775)
(-0.00453814 3.76546 -0.0158731)
(-0.00751051 3.76722 -0.0247753)
(-0.0104751 3.76917 -0.0314616)
(-0.0134564 3.77097 -0.0353675)
(-0.0164968 3.77234 -0.0361641)
(-0.0196305 3.77309 -0.0337355)
(-0.0228905 3.77308 -0.0281831)
(-0.026309 3.77222 -0.0198078)
(-0.0299263 3.77038 -0.00906463)
(-0.0337935 3.76741 0.00351198)
(-0.0379755 3.76302 0.0174009)
(-0.0425544 3.75681 0.0321703)
(-0.047639 3.74826 0.0475406)
(-0.0533368 3.73673 0.0634939)
(-0.0597536 3.72157 0.0802823)
(-0.0669939 3.7021 0.098419)
(-0.0751438 3.67774 0.118656)
(-0.0842579 3.6481 0.141955)
(-0.0943491 3.61296 0.169435)
(-0.105369 3.57245 0.202316)
(-0.117179 3.52702 0.241827)
(-0.129582 3.47748 0.289152)
(-0.142254 3.42497 0.345422)
(-0.154794 3.37084 0.41166)
(-0.166663 3.31661 0.488885)
(-0.177176 3.2638 0.578148)
(-0.185623 3.21377 0.68052)
(-0.191312 3.16768 0.797175)
(-0.193622 3.12649 0.929502)
(-0.19182 3.09093 1.07939)
(-0.184947 3.06159 1.24957)
(-0.171978 3.03891 1.44377)
(-0.152055 3.02301 1.66696)
(-0.124661 3.01353 1.92557)
(-0.089715 3.00944 2.2277)
(-0.0476073 3.00904 2.5837)
(7.30993e-08 3.00987 3.00987)
(0.0521938 3.0073 3.52535)
(0.109206 2.98864 4.14418)
(0.137407 2.9391 4.8977)
(0.0761292 2.83384 5.84138)
(-0.0400941 2.63489 6.95083)
(-0.108398 2.30188 8.01084)
(-0.0991689 1.83953 8.75446)
(-0.0612467 1.31034 9.14137)
(-0.0268515 0.774023 9.33881)
(0.00563242 0.254501 9.49339)
(-0.00197122 3.23975 -0.00555185)
(-0.0058603 3.24023 -0.0160692)
(-0.00969495 3.24092 -0.0250258)
(-0.0135154 3.24146 -0.0316939)
(-0.0173485 3.24163 -0.0355222)
(-0.0212345 3.24124 -0.0361902)
(-0.0252017 3.24021 -0.0335912)
(-0.029276 3.23846 -0.0278303)
(-0.0334835 3.23594 -0.0192018)
(-0.0378622 3.23252 -0.00814003)
(-0.0424656 3.22802 0.00485657)
(-0.047365 3.22211 0.0193163)
(-0.052653 3.21438 0.0348665)
(-0.0584525 3.20428 0.0512894)
(-0.0648839 3.19118 0.0686201)
(-0.0720604 3.17447 0.0871481)
(-0.0800875 3.15357 0.1074)
(-0.0890391 3.12805 0.130105)
(-0.0989444 3.09765 0.156175)
(-0.10977 3.06238 0.186625)
(-0.121394 3.02259 0.222522)
(-0.133575 2.97894 0.264914)
(-0.14599 2.93244 0.314776)
(-0.158156 2.88435 0.373049)
(-0.169516 2.83609 0.440565)
(-0.179364 2.78917 0.518206)
(-0.186848 2.74507 0.606979)
(-0.191214 2.70504 0.707995)
(-0.191811 2.66995 0.822518)
(-0.188073 2.64028 0.952049)
(-0.179396 2.61622 1.09857)
(-0.165129 2.59785 1.26483)
(-0.144679 2.58517 1.45468)
(-0.11768 2.57797 1.67333)
(-0.0841637 2.57573 1.92764)
(-0.0445847 2.57743 2.22639)
(8.67013e-08 2.58114 2.58114)
(0.0476075 2.5837 3.00904)
(0.0965307 2.58168 3.53326)
(0.145678 2.56747 4.17585)
(0.164208 2.52679 4.97813)
(0.0972186 2.43802 6.01064)
(-0.0236841 2.26995 7.26222)
(-0.100572 1.9904 8.5007)
(-0.104541 1.59758 9.39865)
(-0.0766656 1.14131 9.87012)
(-0.0500159 0.675249 10.0967)
(-0.0256163 0.22221 10.2584)
(-0.00230121 2.82179 -0.00557332)
(-0.00684439 2.82177 -0.016112)
(-0.0113271 2.82154 -0.0250347)
(-0.0157983 2.82087 -0.0316113)
(-0.0202865 2.81962 -0.0353042)
(-0.0248296 2.81771 -0.0358018)
(-0.0294514 2.81511 -0.0330034)
(-0.034172 2.81179 -0.0270126)
(-0.0390145 2.8077 -0.0181101)
(-0.0440166 2.80274 -0.00670217)
(-0.0492361 2.79667 0.00675465)
(-0.0547513 2.78918 0.0218418)
(-0.0606627 2.77981 0.0382451)
(-0.0671035 2.76804 0.0558025)
(-0.0741987 2.75328 0.0745916)
(-0.0820578 2.73501 0.0949232)
(-0.0907722 2.71276 0.117314)
(-0.100387 2.68625 0.142453)
(-0.110886 2.65541 0.171173)
(-0.122165 2.62043 0.204355)
(-0.134012 2.58186 0.242904)
(-0.146063 2.54048 0.28768)
(-0.157864 2.49738 0.339449)
(-0.168774 2.45387 0.398985)
(-0.17813 2.41128 0.466981)
(-0.185109 2.37087 0.544184)
(-0.1887 2.33406 0.631573)
(-0.188196 2.30198 0.730386)
(-0.18311 2.27527 0.842106)
(-0.173142 2.25404 0.968452)
(-0.157985 2.23803 1.11152)
(-0.137355 2.2269 1.27411)
(-0.111023 2.22033 1.46014)
(-0.078995 2.21789 1.675)
(-0.0416831 2.21894 1.9259)
(9.84541e-08 2.22243 2.22243)
(0.0445848 2.22639 2.57743)
(0.0897151 2.2277 3.00944)
(0.132626 2.22251 3.54347)
(0.170994 2.2055 4.20772)
(0.177046 2.16491 5.05394)
(0.106736 2.08322 6.16511)
(-0.0111267 1.93603 7.54014)
(-0.0922021 1.69798 8.93513)
(-0.108904 1.36507 9.97306)
(-0.093438 0.976453 10.5243)
(-0.0772082 0.578167 10.7797)
(-0.0632824 0.190355 10.949)
(-0.00255714 2.48401 -0.00554519)
(-0.00760919 2.48355 -0.01601)
(-0.0125994 2.48252 -0.024815)
(-0.0175838 2.4808 -0.03123)
(-0.0225929 2.47831 -0.0347304)
(-0.0276623 2.47506 -0.0350119)
(-0.0328127 2.47105 -0.0319767)
(-0.038061 2.46628 -0.0257215)
(-0.0434291 2.46071 -0.0165072)
(-0.048957 2.45421 -0.00470631)
(-0.0547082 2.44656 0.00926998)
(-0.0607663 2.43741 0.0250567)
(-0.0672361 2.42633 0.0423942)
(-0.0742552 2.41282 0.0611662)
(-0.0819436 2.39639 0.0814791)
(-0.0903931 2.37659 0.103646)
(-0.0996655 2.35314 0.128153)
(-0.10976 2.32589 0.155626)
(-0.120596 2.29498 0.186802)
(-0.131987 2.26074 0.22241)
(-0.143619 2.22383 0.263189)
(-0.155008 2.18516 0.309842)
(-0.165595 2.14566 0.362937)
(-0.17456 2.10663 0.423102)
(-0.181265 2.06935 0.491016)
(-0.18486 2.03461 0.567273)
(-0.184089 2.00364 0.652735)
(-0.178399 1.97745 0.748803)
(-0.167546 1.95673 0.857285)
(-0.151648 1.94147 0.980266)
(-0.130715 1.93106 1.12003)
(-0.104889 1.92466 1.27943)
(-0.0742443 1.92165 1.4624)
(-0.0390473 1.92143 1.67447)
(1.07904e-07 1.92323 1.92323)
(0.0416833 1.9259 2.21894)
(0.0841639 1.92764 2.57573)
(0.124661 1.92557 3.01353)
(0.159819 1.91606 3.55911)
(0.185839 1.89389 4.24561)
(0.178928 1.84953 5.13258)
(0.107667 1.77024 6.31245)
(-0.00279074 1.63845 7.79275)
(-0.0856051 1.43394 9.3218)
(-0.113848 1.15234 10.4819)
(-0.111447 0.824277 11.1043)
(-0.106704 0.488091 11.3858)
(-0.104024 0.16072 11.5622)
(-0.00276541 2.20725 -0.00546948)
(-0.00823231 2.2064 -0.0157695)
(-0.0136375 2.20467 -0.0243765)
(-0.0190429 2.20202 -0.0305613)
(-0.0244809 2.19845 -0.0338102)
(-0.0299861 2.19399 -0.0338248)
(-0.0355775 2.18869 -0.0305059)
(-0.0412711 2.18255 -0.0239381)
(-0.0470898 2.17553 -0.0143572)
(-0.053077 2.16749 -0.00209835)
(-0.0593016 2.1582 0.0124733)
(-0.0658501 2.14732 0.0290436)
(-0.0728254 2.13445 0.0474004)
(-0.0803615 2.11917 0.0674591)
(-0.0885618 2.10108 0.0893388)
(-0.0974841 2.07986 0.113332)
(-0.107147 2.05541 0.13988)
(-0.117488 2.02773 0.16952)
(-0.128345 1.99711 0.202877)
(-0.139461 1.96408 0.240555)
(-0.1504 1.92914 0.283105)
(-0.160576 1.89351 0.331156)
(-0.169419 1.85783 0.385121)
(-0.175805 1.82319 0.445378)
(-0.179334 1.79088 0.512762)
(-0.178837 1.76159 0.587855)
(-0.173183 1.73563 0.67128)
(-0.16236 1.71365 0.764436)
(-0.14657 1.69639 0.869395)
(-0.125839 1.68443 0.988784)
(-0.100012 1.67755 1.1254)
(-0.0701861 1.67416 1.2822)
(-0.0367007 1.67305 1.463)
(1.14198e-07 1.67344 1.67344)
(0.0390475 1.67447 1.92143)
(0.0789952 1.675 2.21789)
(0.11768 1.67332 2.57797)
(0.152055 1.66696 3.02301)
(0.178273 1.65244 3.58191)
(0.191652 1.62465 4.2919)
(0.173024 1.57566 5.2172)
(0.102962 1.49739 6.45611)
(0.00153297 1.37841 8.02447)
(-0.0818151 1.20213 9.66636)
(-0.120136 0.964487 10.9306)
(-0.130322 0.689302 11.614)
(-0.13694 0.40797 11.9179)
(-0.145131 0.134318 12.1004)
(-0.00294322 1.97745 -0.00534767)
(-0.00876429 1.97626 -0.0153948)
(-0.0145235 1.97392 -0.0237253)
(-0.020288 1.97045 -0.0296108)
(-0.0260926 1.96589 -0.0325462)
(-0.0319719 1.96032 -0.0322358)
(-0.0379455 1.95379 -0.028575)
(-0.0440301 1.94632 -0.0216313)
(-0.0502514 1.93785 -0.0116114)
(-0.0566561 1.92824 0.00118825)
(-0.0633166 1.91724 0.0164464)
(-0.0703169 1.90456 0.033893)
(-0.0777489 1.88985 0.0533527)
(-0.085734 1.87278 0.0747546)
(-0.0943451 1.85309 0.0982109)
(-0.10359 1.83062 0.123972)
(-0.113431 1.80541 0.152421)
(-0.123743 1.77765 0.184)
(-0.13423 1.74762 0.219187)
(-0.144644 1.71626 0.258574)
(-0.154387 1.68371 0.302441)
(-0.162719 1.65145 0.351317)
(-0.168831 1.62044 0.405699)
(-0.171155 1.59102 0.465665)
(-0.169562 1.56375 0.53196)
(-0.163883 1.53945 0.605665)
(-0.154019 1.51793 0.68757)
(-0.139492 1.49926 0.778624)
(-0.12012 1.48376 0.880486)
(-0.0958303 1.47225 0.995874)
(-0.0672798 1.46565 1.1289)
(-0.0348974 1.46344 1.28345)
(1.14485e-07 1.46304 1.46304)
(0.0367009 1.463 1.67306)
(0.0742445 1.4624 1.92165)
(0.111023 1.46014 2.22033)
(0.144679 1.45468 2.58517)
(0.171978 1.44377 3.03891)
(0.188852 1.42421 3.61268)
(0.190385 1.39122 4.34708)
(0.162271 1.33834 5.30814)
(0.0949271 1.26155 6.59668)
(0.00231767 1.15423 8.23739)
(-0.0810331 1.00245 9.973)
(-0.127938 0.80249 11.3244)
(-0.149587 0.572762 12.0593)
(-0.16669 0.338722 12.3816)
(-0.184705 0.111482 12.5689)
(-0.00310175 1.78421 -0.00518075)
(-0.00923818 1.78272 -0.0148883)
(-0.0153118 1.77983 -0.0228639)
(-0.0213947 1.77561 -0.0283787)
(-0.0275247 1.77015 -0.0309331)
(-0.0337387 1.76353 -0.0302306)
(-0.0400583 1.75582 -0.0261563)
(-0.046503 1.74702 -0.0187569)
(-0.0531013 1.73707 -0.00820756)
(-0.0599018 1.72581 0.00523356)
(-0.0669765 1.71303 0.0212828)
(-0.0743973 1.69848 0.0397018)
(-0.0822324 1.6819 0.0603372)
(-0.0905827 1.66308 0.0831106)
(-0.0994747 1.64192 0.108107)
(-0.108854 1.61843 0.135525)
(-0.118595 1.59271 0.165662)
(-0.128554 1.56534 0.198932)
(-0.138197 1.53639 0.235537)
(-0.147374 1.50723 0.27611)
(-0.15466 1.47858 0.320795)
(-0.158603 1.45064 0.369618)
(-0.159361 1.42457 0.423523)
(-0.156735 1.40038 0.483055)
(-0.150401 1.37788 0.548607)
(-0.1407 1.35741 0.621169)
(-0.127819 1.33921 0.701846)
(-0.110994 1.32324 0.79162)
(-0.08969 1.3094 0.891876)
(-0.0633687 1.29777 1.00454)
(-0.0331837 1.28897 1.13339)
(1.09803e-07 1.28465 1.28465)
(0.0348976 1.28345 1.46344)
(0.0701863 1.2822 1.67416)
(0.10489 1.27943 1.92466)
(0.137355 1.27411 2.2269)
(0.16513 1.26483 2.59785)
(0.184947 1.24957 3.06159)
(0.192807 1.22546 3.65137)
(0.184095 1.18827 4.41045)
(0.14905 1.13302 5.40412)
(0.0851562 1.05887 6.73337)
(0.000142147 0.962664 8.43244)
(-0.0830173 0.832446 10.2451)
(-0.137104 0.66479 11.6689)
(-0.168782 0.473783 12.4466)
(-0.19509 0.279931 12.7837)
(-0.221559 0.0920943 12.9746)
(-0.00324821 1.61977 -0.00496905)
(-0.00967562 1.618 -0.0142506)
(-0.0160387 1.61461 -0.021791)
(-0.0224145 1.6097 -0.0268597)
(-0.0288456 1.60338 -0.028958)
(-0.0353727 1.59575 -0.0277844)
(-0.0420217 1.58686 -0.0232099)
(-0.0488157 1.5767 -0.015257)
(-0.0557846 1.5652 -0.00406906)
(-0.0629756 1.55223 0.0101303)
(-0.0704529 1.53759 0.0270835)
(-0.0782633 1.52112 0.0465643)
(-0.0864296 1.50269 0.0684195)
(-0.0950384 1.48228 0.0925526)
(-0.10403 1.45981 0.118997)
(-0.113298 1.4357 0.147925)
(-0.12255 1.41001 0.179438)
(-0.131637 1.38385 0.21397)
(-0.139191 1.35773 0.251506)
(-0.144156 1.33184 0.292179)
(-0.146386 1.30757 0.336831)
(-0.145498 1.2842 0.38564)
(-0.141641 1.26196 0.439115)
(-0.135449 1.24121 0.498129)
(-0.126582 1.22202 0.56321)
(-0.114875 1.20436 0.63509)
(-0.0998815 1.18852 0.714773)
(-0.0810028 1.17451 0.803443)
(-0.0579348 1.1622 0.902672)
(-0.0309531 1.15131 1.01452)
(1.14447e-07 1.14143 1.14143)
(0.0331839 1.13339 1.28897)
(0.06728 1.1289 1.46565)
(0.100012 1.1254 1.67755)
(0.130716 1.12003 1.93106)
(0.157985 1.11152 2.23803)
(0.179396 1.09857 2.61622)
(0.19182 1.07939 3.09093)
(0.191592 1.05153 3.6973)
(0.174723 1.01148 4.48043)
(0.135189 0.955647 5.50306)
(0.0746229 0.885395 6.86482)
(-0.00455358 0.799857 8.61016)
(-0.0874712 0.688762 10.4856)
(-0.14743 0.548828 11.9691)
(-0.187555 0.390637 12.782)
(-0.221584 0.230617 13.131)
(-0.254997 0.0758416 13.3246)
(-0.0033874 1.47826 -0.00471208)
(-0.0100912 1.47623 -0.0134795)
(-0.0167292 1.47236 -0.020501)
(-0.0233846 1.46679 -0.0250412)
(-0.0301061 1.45964 -0.0265982)
(-0.0369408 1.45099 -0.0248606)
(-0.0439202 1.44088 -0.0196819)
(-0.0510703 1.42931 -0.0110589)
(-0.0584191 1.4162 0.000893565)
(-0.0660043 1.40143 0.0159769)
(-0.0738741 1.38491 0.0339422)
(-0.0820401 1.36656 0.0545562)
(-0.0904211 1.34635 0.0776272)
(-0.0991286 1.32463 0.103075)
(-0.107936 1.30136 0.130778)
(-0.116597 1.27759 0.160866)
(-0.124045 1.25372 0.193236)
(-0.129427 1.23003 0.227994)
(-0.132614 1.20749 0.265764)
(-0.132929 1.18534 0.306587)
(-0.130888 1.16393 0.35109)
(-0.127137 1.14349 0.399955)
(-0.121272 1.12388 0.453436)
(-0.113237 1.10544 0.512128)
(-0.10263 1.08842 0.576663)
(-0.0891586 1.07288 0.647845)
(-0.0724278 1.05884 0.72671)
(-0.0520324 1.04622 0.814555)
(-0.0278175 1.03482 0.913041)
(1.20021e-07 1.02438 1.02438)
(0.0309533 1.01452 1.15131)
(0.0633689 1.00454 1.29777)
(0.0958305 0.995873 1.47225)
(0.125839 0.988784 1.68444)
(0.151648 0.980266 1.94147)
(0.173142 0.968452 2.25404)
(0.188073 0.952049 2.64028)
(0.193622 0.929501 3.12649)
(0.186672 0.898822 3.74932)
(0.164082 0.857398 4.55499)
(0.12264 0.80292 5.60261)
(0.0638625 0.737552 6.98967)
(-0.0124176 0.662021 8.77092)
(-0.094507 0.568245 10.6969)
(-0.158859 0.452205 12.2295)
(-0.205703 0.321649 13.0716)
(-0.245841 0.189791 13.4302)
(-0.284605 0.0623965 13.6258)
(-0.00352283 1.35517 -0.0044083)
(-0.0104957 1.3529 -0.0125695)
(-0.0174028 1.34857 -0.0189824)
(-0.0243349 1.34235 -0.0229029)
(-0.0313487 1.33435 -0.0238204)
(-0.0385 1.32464 -0.0214097)
(-0.0458267 1.31327 -0.0155038)
(-0.0533549 1.30021 -0.00607655)
(-0.0611017 1.28541 0.00677587)
(-0.0690814 1.26882 0.0228614)
(-0.0773242 1.25047 0.041925)
(-0.0857892 1.23034 0.0637301)
(-0.0941668 1.20872 0.0879333)
(-0.102622 1.18647 0.114449)
(-0.110019 1.16422 0.142925)
(-0.115478 1.14221 0.173243)
(-0.119085 1.12114 0.205867)
(-0.120331 1.10029 0.240832)
(-0.119713 1.07993 0.27868)
(-0.117575 1.06012 0.319891)
(-0.113767 1.04063 0.364687)
(-0.108207 1.02202 0.413529)
(-0.100681 1.00442 0.46682)
(-0.0910597 0.988001 0.52513)
(-0.0789956 0.972843 0.589147)
(-0.0641437 0.958936 0.659739)
(-0.04615 0.946201 0.738013)
(-0.0247669 0.934479 0.825357)
(1.17562e-07 0.923529 0.923529)
(0.0278178 0.91304 1.03482)
(0.0579351 0.902671 1.1622)
(0.0896902 0.891876 1.3094)
(0.12012 0.880486 1.48376)
(0.146571 0.869394 1.6964)
(0.167547 0.857285 1.95674)
(0.18311 0.842106 2.27527)
(0.191811 0.822517 2.66995)
(0.191312 0.797174 3.16768)
(0.179205 0.764599 3.80598)
(0.153355 0.723216 4.63151)
(0.112417 0.671913 5.70027)
(0.0530491 0.612064 7.10715)
(-0.0236253 0.545549 8.91487)
(-0.103605 0.467593 10.8805)
(-0.170955 0.372137 12.4541)
(-0.222944 0.26474 13.3213)
(-0.267736 0.15618 13.6881)
(-0.310437 0.051334 13.8852)
(-0.00365755 1.24702 -0.00405481)
(-0.0108988 1.24451 -0.0115112)
(-0.0180772 1.23972 -0.0172168)
(-0.025293 1.23282 -0.020414)
(-0.0326131 1.22393 -0.0205782)
(-0.0401038 1.21312 -0.0173672)
(-0.0478078 1.2004 -0.0105941)
(-0.0557443 1.18577 -0.000218158)
(-0.0639074 1.16925 0.013665)
(-0.0722615 1.15087 0.0308436)
(-0.0808119 1.13084 0.0510687)
(-0.0894098 1.10942 0.0739882)
(-0.0969724 1.08794 0.0989692)
(-0.102788 1.06674 0.12569)
(-0.106649 1.04669 0.154294)
(-0.108471 1.02687 0.184801)
(-0.108783 1.00742 0.217606)
(-0.107849 0.988274 0.253066)
(-0.105476 0.969249 0.291338)
(-0.101581 0.950817 0.332756)
(-0.0961486 0.933065 0.377616)
(-0.0891563 0.916232 0.426325)
(-0.0803908 0.900416 0.479349)
(-0.06961 0.885675 0.537289)
(-0.0564667 0.871998 0.600889)
(-0.0406317 0.8593 0.671079)
(-0.0218444 0.847439 0.749029)
(1.11379e-07 0.836212 0.836212)
(0.0247671 0.825357 0.93448)