/*--------------------------------*- C++ -*----------------------------------*\
| =========                 |                                                 |
| \\      /  F ield         | OpenFOAM: The Open Source CFD Toolbox           |
|  \\    /   O peration     | Version:  2506                                  |
|   \\  /    A nd           | Website:  www.openfoam.com                      |
|    \\/     M anipulation  |                                                 |
\*---------------------------------------------------------------------------*/
FoamFile
{
    version     2.0;
    format      ascii;
    arch        "LSB;label=32;scalar=64";
    class       volScalarField;
    location    "2644";
    object      alpha_S;
}
// * * * * * * * * * * * * * * * * * * * * * * * * * * * * * * * * * * * * * //

dimensions      [0 0 0 0 0 0 0];

internalField   nonuniform List<scalar> 
15600
(
-3.84389577
-3.84387621
-3.84393893
-3.84399612
-3.84398155
-3.84398028
-3.84398636
-3.84398777
-3.8439888
-3.84398953
-3.84399012
-3.84399012
-3.8439897
-3.84398863
-3.84398668
-3.84398364
-3.84397969
-3.84397511
-3.84397007
-3.84396514
-3.84396103
-3.8439577
-3.84395481
-3.84395285
-3.84395181
-3.8439508
-3.84395068
-3.84393648
-3.84389246
-3.8438378
-3.8437866
-3.84373662
-3.84369072
-3.84364893
-3.84361189
-3.84357982
-3.84355303
-3.84353164
-3.8435157
-3.84350512
-3.84349975
-3.84349934
-3.84350356
-3.84351204
-3.84352435
-3.84354004
-3.84355863
-3.84357964
-3.84360261
-3.84362707
-3.8436526
-3.84367878
-3.84370523
-3.84373158
-3.84375751
-3.84378272
-3.84380693
-3.84382993
-3.84385154
-3.84387162
-3.8438901
-3.84390694
-3.84392215
-3.84393573
-3.8439477
-3.84395812
-3.84396706
-3.84397459
-3.84398082
-3.84398585
-3.84398975
-3.84399264
-3.84399461
-3.84399578
-3.84399624
-3.8439961
-3.84399545
-3.84399438
-3.84399298
-3.84399135
-3.8439896
-3.84398783
-3.84398618
-3.8439848
-3.84398386
-3.84398352
-3.84398391
-3.84398517
-3.84398721
-3.84399002
-3.84399289
-3.84399543
-3.84399604
-3.84399521
-3.84399556
-3.84399603
-3.84399623
-3.8439953
-3.84399261
-3.84398659
-3.84397481
-3.84395424
-3.84392248
-3.84387948
-3.84383294
-3.84379228
-3.84375763
-3.84372636
-3.8436944
-3.8436545
-3.84358443
-3.84346499
-3.84328844
-3.843005
-3.84256479
-3.84201635
-3.84208895
-3.84293948
-3.84365311
-3.84388107
-3.83896296
-3.83894679
-3.84117037
-3.84379164
-3.84375268
-3.84358019
-3.8437106
-3.84374821
-3.84377425
-3.84379227
-3.84380544
-3.84380206
-3.84378503
-3.84374797
-3.84368393
-3.84358806
-3.84346677
-3.84332743
-3.84317537
-3.84302534
-3.84289096
-3.8427683
-3.84265099
-3.84254922
-3.8424601
-3.84236286
-3.84220263
-3.84162276
-3.84035928
-3.8389158
-3.83761409
-3.83641679
-3.83536658
-3.83445747
-3.8336946
-3.83307653
-3.83260314
-3.83227131
-3.8320761
-3.83201064
-3.83206685
-3.83223428
-3.83250428
-3.83286369
-3.8332998
-3.83380045
-3.83435361
-3.83494763
-3.83557135
-3.83621427
-3.83686657
-3.8375192
-3.83816385
-3.838793
-3.83939993
-3.83997873
-3.84052437
-3.84103279
-3.84150099
-3.84192711
-3.84231033
-3.84265064
-3.84294858
-3.84320505
-3.84342132
-3.84359914
-3.84374067
-3.8438483
-3.84392458
-3.84397209
-3.8439935
-3.84399156
-3.84396912
-3.843929
-3.84387388
-3.84380633
-3.84372886
-3.84364402
-3.84355444
-3.84346298
-3.8433728
-3.8432876
-3.84321161
-3.84314996
-3.8431082
-3.84309295
-3.84310986
-3.84316548
-3.84325964
-3.84339696
-3.84355884
-3.84374417
-3.84391294
-3.84395714
-3.84394649
-3.84391671
-3.84385374
-3.84375396
-3.84360161
-3.84335016
-3.84294269
-3.84231916
-3.84144452
-3.84033114
-3.83914183
-3.83807854
-3.8371717
-3.83636634
-3.83556907
-3.83461995
-3.83305019
-3.83040231
-3.82646319
-3.82036193
-3.8111703
-3.79923041
-3.79627096
-3.80976517
-3.82814367
-3.83709282
-3.78179289
-3.78941093
-3.81052629
-3.8378727
-3.84331155
-3.84133867
-3.84190158
-3.8421434
-3.84230071
-3.84240246
-3.8424622
-3.84240248
-3.84223105
-3.84189775
-3.84135184
-3.84057235
-3.83961229
-3.83852231
-3.83734274
-3.8361581
-3.83501291
-3.83385317
-3.83264833
-3.83143761
-3.83017576
-3.82868958
-3.82608662
-3.82093598
-3.81274213
-3.80408626
-3.79672069
-3.79053675
-3.78554557
-3.78164351
-3.77877023
-3.77685497
-3.77583379
-3.7756356
-3.77618671
-3.77741113
-3.77923311
-3.78157133
-3.78437922
-3.78753535
-3.7909624
-3.79458935
-3.79834992
-3.80218287
-3.80603225
-3.80984738
-3.8135828
-3.81719808
-3.82065773
-3.82393104
-3.826992
-3.82981931
-3.83239646
-3.8347119
-3.83675918
-3.83853674
-3.8400472
-3.84129643
-3.84229237
-3.84304473
-3.84356505
-3.84386678
-3.8439648
-3.84387491
-3.84361344
-3.84319725
-3.84264391
-3.84197151
-3.8411981
-3.84034117
-3.83941744
-3.83844316
-3.83743474
-3.83640946
-3.8353858
-3.83438433
-3.83342853
-3.83254642
-3.83177112
-3.83114328
-3.83070946
-3.83052717
-3.83067054
-3.83119312
-3.83212679
-3.83353755
-3.83535295
-3.83767036
-3.83995194
-3.84071344
-3.84054618
-3.84001578
-3.83919529
-3.83809632
-3.83661158
-3.8344064
-3.83117062
-3.82668217
-3.82091445
-3.81402643
-3.80673639
-3.8000013
-3.79418193
-3.78906686
-3.78417968
-3.7787117
-3.77042974
-3.75675783
-3.73631115
-3.70616024
-3.66335445
-3.60780672
-3.5744357
-3.60038889
-3.68680609
-3.75461497
-3.49890299
-3.56280615
-3.66259874
-3.78887622
-3.84276371
-3.83610874
-3.83639032
-3.83707291
-3.8374771
-3.83768897
-3.83772535
-3.83732891
-3.83647213
-3.83495714
-3.832609
-3.82942001
-3.82560599
-3.82133558
-3.81674089
-3.81200139
-3.807051
-3.80161376
-3.79560804
-3.78901389
-3.78159032
-3.77259881
-3.75859542
-3.74139421
-3.7217718
-3.70265489
-3.68841261
-3.67898748
-3.67342721
-3.67113068
-3.67157852
-3.67433741
-3.67902066
-3.68527783
-3.6927942
-3.7012871
-3.71046229
-3.72032277
-3.73048996
-3.74073777
-3.75091381
-3.76088949
-3.7705554
-3.7798192
-3.78860366
-3.79684492
-3.80449103
-3.81150071
-3.81784244
-3.82349361
-3.82843992
-3.83267491
-3.83619953
-3.83902164
-3.84115541
-3.8426204
-3.84344037
-3.84364216
-3.84325508
-3.84231078
-3.84084351
-3.83888941
-3.8364864
-3.83367371
-3.83049171
-3.82698268
-3.82319035
-3.81915951
-3.81493417
-3.81055746
-3.80607163
-3.80151926
-3.79694487
-3.79239657
-3.787927
-3.78359561
-3.77947185
-3.77563915
-3.77219959
-3.76927841
-3.7670289
-3.76565087
-3.76556738
-3.76690781
-3.7699329
-3.77496385
-3.78220603
-3.79249583
-3.80196836
-3.80477079
-3.80446262
-3.80227305
-3.79953131
-3.79585164
-3.79080012
-3.78339988
-3.7729623
-3.75946086
-3.74340591
-3.72531261
-3.70584336
-3.68650879
-3.66887584
-3.65306332
-3.63831348
-3.62312043
-3.60352482
-3.57324301
-3.52815593
-3.46664423
-3.38908164
-3.29444036
-3.19600014
-3.13553432
-3.2297135
-3.38151131
-2.80029949
-2.99497584
-3.26505303
-3.59494126
-3.82730381
-3.83049214
-3.82601602
-3.82686607
-3.82724386
-3.8271681
-3.82662612
-3.82504552
-3.82220469
-3.81759516
-3.81086429
-3.80220973
-3.79219655
-3.78118286
-3.76939132
-3.7568499
-3.74285649
-3.72669929
-3.70830436
-3.68731807
-3.66329254
-3.63535571
-3.60056106
-3.57977546
-3.57104715
-3.56518162
-3.56683887
-3.57609352
-3.58955606
-3.6058577
-3.62383383
-3.64269862
-3.66182475
-3.68073932
-3.69908204
-3.71656959
-3.73314065
-3.74873587
-3.76311603
-3.77622551
-3.78805765
-3.79862402
-3.80794823
-3.81606191
-3.82300169
-3.82880724
-3.83352002
-3.83718249
-3.83983758
-3.84152833
-3.84229755
-3.84218736
-3.84123868
-3.83949078
-3.83698097
-3.83374474
-3.82981615
-3.82522833
-3.82001443
-3.81420772
-3.80784243
-3.80095332
-3.79357791
-3.78575599
-3.77752987
-3.7689438
-3.76004007
-3.75086364
-3.74145963
-3.73187577
-3.72216293
-3.71237492
-3.70256915
-3.69280649
-3.68315292
-3.67368075
-3.66447394
-3.65562905
-3.64726747
-3.6395297
-3.63260207
-3.62673929
-3.6229783
-3.62127395
-3.6223125
-3.62665067
-3.63576273
-3.65195448
-3.66337993
-3.66396573
-3.66619165
-3.66511255
-3.66423421
-3.66114516
-3.6548467
-3.64439751
-3.62917911
-3.61037413
-3.58960501
-3.56719226
-3.5404134
-3.50876588
-3.47582759
-3.44384162
-3.41356295
-3.38514198
-3.35821852
-3.3248161
-3.27709011
-3.22243163
-3.17326648
-3.12308839
-2.97349588
-2.69613906
-2.56117744
-2.61346896
-1.90089331
-2.19204858
-2.61942851
-3.15248843
-3.72979882
-3.83057422
-3.81324865
-3.81231098
-3.81133589
-3.80948959
-3.80675054
-3.80216788
-3.79501293
-3.78435133
-3.76981546
-3.7522866
-3.73285001
-3.71206785
-3.69010691
-3.66625198
-3.63853545
-3.60615596
-3.56966961
-3.52848541
-3.48309106
-3.43640384
-3.39684394
-3.413305
-3.46686726
-3.51749085
-3.5632445
-3.60724515
-3.64632658
-3.68073831
-3.7106104
-3.73633172
-3.75825797
-3.7767586
-3.79218388
-3.80486882
-3.81522259
-3.82349022
-3.82989086
-3.83464468
-3.83794621
-3.83996326
-3.84083988
-3.84069936
-3.8396471
-3.83777341
-3.83515594
-3.83186159
-3.82794797
-3.82346439
-3.81845238
-3.81294599
-3.80697209
-3.8005511
-3.79369841
-3.78642627
-3.77874515
-3.77066394
-3.76219047
-3.75333106
-3.74409281
-3.73448507
-3.72452398
-3.71423014
-3.70362709
-3.69273585
-3.68157168
-3.67015053
-3.65849275
-3.64662554
-3.63458422
-3.62240874
-3.61014106
-3.59782047
-3.58548388
-3.57316274
-3.56088714
-3.54867575
-3.53654859
-3.52449469
-3.51250693
-3.50057945
-3.48973564
-3.47940334
-3.4701243
-3.46168918
-3.4563958
-3.45561276
-3.44189715
-3.42845476
-3.43690097
-3.44517615
-3.45465527
-3.45996898
-3.4598194
-3.45511298
-3.44621902
-3.43616644
-3.42748351
-3.41921921
-3.40226628
-3.37109446
-3.33020973
-3.28480053
-3.23908949
-3.19865003
-3.1748903
-3.16362409
-3.15335998
-3.160814
-3.20568786
-3.26764417
-3.13289027
-2.63674402
-2.09256423
-1.81021543
-1.2597716
-1.52605713
-1.95067327
-2.51143439
-3.43224368
-3.83062632
-3.80594072
-3.79847263
-3.79324765
-3.78643512
-3.77828416
-3.76767811
-3.75303965
-3.73317822
-3.70832576
-3.68078965
-3.65219611
-3.62323143
-3.59376232
-3.5617706
-3.52402217
-3.48082333
-3.43448428
-3.38474853
-3.33463185
-3.29465678
-3.28774323
-3.37366651
-3.50594584
-3.60872222
-3.67895192
-3.7308086
-3.76767467
-3.79405422
-3.81270331
-3.82561824
-3.83417201
-3.83936896
-3.84195673
-3.84251369
-3.84146888
-3.83914189
-3.83579081
-3.83162047
-3.82679174
-3.82143129
-3.81563877
-3.80949269
-3.80305507
-3.7963751
-3.78949181
-3.78243589
-3.77523067
-3.7678926
-3.76043125
-3.75284937
-3.74514339
-3.73730483
-3.72932246
-3.72118465
-3.71287995
-3.70439619
-3.69572087
-3.68684044
-3.67774352
-3.66842327
-3.65888329
-3.64913128
-3.63917744
-3.62902466
-3.61867267
-3.6081175
-3.5973591
-3.58640594
-3.575278
-3.56400206
-3.55260693
-3.54111424
-3.52953512
-3.51786405
-3.50608162
-3.49413487
-3.48194466
-3.46934908
-3.45612669
-3.44195639
-3.42738278
-3.41125198
-3.3933467
-3.37193064
-3.34827896
-3.31952165
-3.26688929
-3.23165301
-3.24034787
-3.25675454
-3.27586355
-3.28990227
-3.29689305
-3.2997077
-3.30075316
-3.3054934
-3.31739707
-3.33396419
-3.34038491
-3.3256112
-3.29306025
-3.24919835
-3.20076322
-3.15872112
-3.14722698
-3.16890813
-3.20855047
-3.28150539
-3.40104314
-3.53794904
-3.48841026
-2.97331293
-2.08323583
-1.39187023
-1.06153627
-1.20980829
-1.4863633
-1.86353699
-2.89018049
-3.77400251
-3.81406759
-3.79466384
-3.78143985
-3.76507549
-3.74682341
-3.72631574
-3.70117161
-3.67069761
-3.63681093
-3.60384886
-3.57353998
-3.54613772
-3.52058705
-3.49303228
-3.45925635
-3.42121395
-3.38308659
-3.3450277
-3.3125727
-3.30198447
-3.34037406
-3.47433902
-3.63375155
-3.73423679
-3.78789524
-3.81851785
-3.83458436
-3.84194477
-3.84378934
-3.84202054
-3.83781541
-3.83194643
-3.82494584
-3.81716103
-3.8088249
-3.80013473
-3.79124032
-3.7822501
-3.77324385
-3.76427938
-3.75539762
-3.74662703
-3.73798694
-3.72948986
-3.72114311
-3.71294961
-3.7049078
-3.69701128
-3.68924817
-3.68160093
-3.6740469
-3.66656009
-3.65911322
-3.65167986
-3.64423361
-3.63674724
-3.62919547
-3.62155486
-3.61380776
-3.60594255
-3.59795522
-3.58984421
-3.5816109
-3.57325279
-3.56476521
-3.5561365
-3.54735505
-3.53841737
-3.52933406
-3.5201263
-3.5108206
-3.50143619
-3.49197687
-3.48242362
-3.47273822
-3.46283867
-3.45260192
-3.44179293
-3.43007867
-3.41695511
-3.40266907
-3.38572025
-3.36523759
-3.33838193
-3.30501324
-3.25861691
-3.17816838
-3.11950854
-3.11700713
-3.131375
-3.15175466
-3.16816612
-3.17678712
-3.18121912
-3.18694615
-3.20282967
-3.23348889
-3.27465425
-3.30722415
-3.31555749
-3.30150199
-3.27172698
-3.23382069
-3.20090871
-3.20313199
-3.24759552
-3.31484197
-3.41168178
-3.54369872
-3.68624641
-3.72527988
-3.3990824
-2.45629583
-1.4584156
-1.24012432
-1.22223863
-1.29375718
-1.36267555
-2.22222485
-3.53635032
-3.83319464
-3.80879687
-3.7866783
-3.75778835
-3.72530319
-3.69169779
-3.6549083
-3.61618848
-3.58012978
-3.55259019
-3.53379211
-3.52169856
-3.51287809
-3.5010899
-3.48144648
-3.4572544
-3.4342324
-3.41345158
-3.40229791
-3.4180216
-3.48094589
-3.61460931
-3.74351173
-3.80724686
-3.83122824
-3.8378386
-3.83547509
-3.82835507
-3.81869901
-3.80760591
-3.79572437
-3.78344498
-3.77105503
-3.75867378
-3.74641243
-3.73437321
-3.7226297
-3.7112317
-3.70021264
-3.68959183
-3.67937778
-3.6695714
-3.66016862
-3.6511618
-3.64254072
-3.6342928
-3.62640235
-3.61884961
-3.61160984
-3.60465304
-3.59794482
-3.59144843
-3.58512616
-3.57894058
-3.57285182
-3.56681733
-3.56080004
-3.55477048
-3.54871415
-3.54261692
-3.53646532
-3.53025034
-3.52396802
-3.51761302
-3.51118092
-3.50465869
-3.49802771
-3.49127556
-3.48440576
-3.47743669
-3.47039726
-3.46331178
-3.45618589
-3.44899848
-3.44170756
-3.43422315
-3.42640659
-3.41799032
-3.40858982
-3.39759896
-3.38511714
-3.36951187
-3.34948866
-3.32164442
-3.28479547
-3.23069739
-3.13560882
-3.05630996
-3.03619687
-3.04040431
-3.05476083
-3.06717896
-3.0713001
-3.07079976
-3.07520623
-3.09751004
-3.14315387
-3.20543592
-3.26140387
-3.29149559
-3.29616646
-3.28212029
-3.25710209
-3.23406046
-3.24330945
-3.29325615
-3.3608267
-3.44625609
-3.55609225
-3.67683152
-3.77574669
-3.6696996
-2.9415106
-1.8661216
-1.64796965
-1.46517992
-1.33721303
-1.05507672
-1.58586442
-3.04036735
-3.81640881
-3.83429912
-3.81166594
-3.77512476
-3.72980025
-3.6837111
-3.63772414
-3.5967618
-3.568007
-3.55648327
-3.55821709
-3.56667487
-3.57548792
-3.57728432
-3.56810426
-3.55281276
-3.53863201
-3.52808592
-3.52909857
-3.55573812
-3.61736734
-3.71870448
-3.79674048
-3.82246774
-3.82230649
-3.81171911
-3.797231
-3.78101631
-3.76434828
-3.74764202
-3.73115071
-3.71501331
-3.69934661
-3.684178
-3.66954151
-3.65548659
-3.64204798
-3.62924853
-3.61710032
-3.60560396
-3.59475124
-3.58452812
-3.57491723
-3.56589898
-3.55745241
-3.54955513
-3.54218213
-3.53530438
-3.52888786
-3.52289346
-3.51727832
-3.51199819
-3.50700782
-3.50226057
-3.49770264
-3.49327338
-3.48892164
-3.48461512
-3.48034615
-3.47609498
-3.4718406
-3.4675689
-3.46326925
-3.45893281
-3.4545569
-3.4501305
-3.44563059
-3.44103708
-3.43634665
-3.4315748
-3.42675362
-3.42191486
-3.41706906
-3.41219623
-3.407255
-3.40215385
-3.39674731
-3.39074803
-3.38374194
-3.37505078
-3.36466616
-3.35092746
-3.33224872
-3.304941
-3.2670411
-3.20982793
-3.10782078
-3.01239321
-2.97316984
-2.96285141
-2.96642001
-2.96997248
-2.96452247
-2.95404238
-2.95303947
-2.97878373
-3.03661786
-3.11658777
-3.19202377
-3.24000959
-3.25977126
-3.25788344
-3.24184704
-3.22328116
-3.22998991
-3.27018699
-3.31894508
-3.37545089
-3.45707082
-3.56066847
-3.70867749
-3.77000706
-3.32489372
-2.38823856
-2.12726436
-1.83004063
-1.55152081
-0.928309045
-1.05877766
-2.37189824
-3.67669057
-3.84177595
-3.83912773
-3.81162514
-3.76534035
-3.71442824
-3.665775
-3.62892025
-3.6123854
-3.61770963
-3.63570256
-3.65605539
-3.6716969
-3.67688912
-3.66989245
-3.65646921
-3.64437793
-3.63701227
-3.64120951
-3.6660555
-3.71171675
-3.7723181
-3.80398488
-3.80095581
-3.78384131
-3.76157624
-3.73900276
-3.71670463
-3.69530775
-3.67474934
-3.65502684
-3.63613257
-3.61809534
-3.60089054
-3.5845059
-3.56896328
-3.55427941
-3.54046605
-3.52752569
-3.51544926
-3.50421857
-3.49380984
-3.48419652
-3.47535035
-3.46724229
-3.45984239
-3.45311812
-3.44703274
-3.44154429
-3.43660584
-3.43216761
-3.42817993
-3.42459227
-3.42135053
-3.41838666
-3.41561844
-3.41297854
-3.41043363
-3.40797828
-3.40558991
-3.40324372
-3.40092072
-3.3986018
-3.3962724
-3.39393151
-3.39157241
-3.38916973
-3.38669666
-3.38414275
-3.3815194
-3.37886094
-3.37620682
-3.3735728
-3.37093986
-3.36826728
-3.36546262
-3.36237474
-3.35869848
-3.35399574
-3.34752598
-3.33917065
-3.32727429
-3.31003229
-3.28358972
-3.24532368
-3.1866932
-3.08172368
-2.97439955
-2.9168486
-2.88995529
-2.87966811
-2.87063068
-2.85153999
-2.82756747
-2.81901143
-2.84683907
-2.91493362
-3.00939708
-3.10018218
-3.1617709
-3.19234551
-3.19807015
-3.18576367
-3.16496592
-3.15971084
-3.17760722
-3.1941142
-3.21340999
-3.27386629
-3.37776243
-3.58019152
-3.77070306
-3.55219697
-2.84683327
-2.55812352
-2.21680418
-1.86229578
-0.956521266
-0.667345879
-1.66683498
-3.3547499
-3.79397369
-3.83768648
-3.84111845
-3.81347479
-3.7716692
-3.72937763
-3.70012685
-3.69267866
-3.7052541
-3.72648997
-3.7460284
-3.75859927
-3.76102282
-3.75287486
-3.73910826
-3.72669942
-3.71911789
-3.72131872
-3.73783239
-3.76341596
-3.78731701
-3.78309835
-3.75929375
-3.72981016
-3.69895287
-3.6703246
-3.64335614
-3.61824102
-3.59457225
-3.57217149
-3.55097342
-3.53092476
-3.5119702
-3.4940706
-3.47723319
-3.46146699
-3.44677952
-3.43316831
-3.42061777
-3.40910196
-3.39858894
-3.38904426
-3.38043196
-3.37271579
-3.36585899
-3.35982214
-3.35456124
-3.35002678
-3.34616449
-3.34291856
-3.34023557
-3.33806213
-3.33633914
-3.33498472
-3.33389248
-3.33297845
-3.33220149
-3.33155691
-3.33102568
-3.33058142
-3.33020112
-3.32985535
-3.32952068
-3.32919665
-3.32888268
-3.32855316
-3.32817569
-3.32773252
-3.32722934
-3.3267009
-3.32619355
-3.32572736
-3.32528261
-3.32481743
-3.32423682
-3.32338231
-3.32192907
-3.31941403
-3.31503764
-3.30854114
-3.29832538
-3.28236477
-3.25670486
-3.21811974
-3.15859797
-3.05270509
-2.93688661
-2.86264252
-2.81842388
-2.79227585
-2.76770521
-2.73173332
-2.69213022
-2.67546359
-2.70505449
-2.78178134
-2.88742943
-2.98923636
-3.06001436
-3.09712504
-3.10596924
-3.09217253
-3.06244653
-3.03609425
-3.02021257
-2.9929614
-2.96951299
-3.02172107
-3.1495678
-3.41747248
-3.72427246
-3.66170006
-3.17193341
-2.8877254
-2.55708609
-2.19619045
-1.11313557
-0.569923497
-1.00007311
-2.86653123
-3.67088311
-3.78556136
-3.83444938
-3.84237472
-3.82302586
-3.79509814
-3.77417177
-3.76922572
-3.77834198
-3.79286425
-3.80537783
-3.81262938
-3.81278512
-3.80507193
-3.79235054
-3.78006599
-3.77141045
-3.76955573
-3.77583232
-3.78277384
-3.7772978
-3.74616751
-3.70664498
-3.66730872
-3.62944163
-3.5957055
-3.56467984
-3.53625111
-3.50974875
-3.48489117
-3.46153749
-3.43960263
-3.41899333
-3.39965566
-3.38158811
-3.36479634
-3.34928553
-3.33504888
-3.32206444
-3.31029829
-3.29971007
-3.2902573
-3.28189634
-3.27458385
-3.26827636
-3.26292775
-3.25848684
-3.25489664
-3.25209566
-3.25002271
-3.24862218
-3.24784055
-3.24761699
-3.24785753
-3.24843204
-3.24923523
-3.25020806
-3.25135088
-3.25265269
-3.25408854
-3.25563322
-3.2572453
-3.25888862
-3.26056139
-3.26227064
-3.26399283
-3.26569166
-3.26734224
-3.26894279
-3.27052617
-3.27214419
-3.27381955
-3.27552923
-3.27722752
-3.2788142
-3.28012074
-3.28079947
-3.28035843
-3.27794025
-3.27314449
-3.26438219
-3.24947457
-3.22438106
-3.18531189
-3.12498808
-3.01926409
-2.8975473
-2.80847677
-2.74694397
-2.70363935
-2.66115533
-2.60582764
-2.54973501
-2.52561326
-2.55714466
-2.64075545
-2.7539531
-2.86219375
-2.93762439
-2.97699882
-2.98454659
-2.9641189
-2.91871483
-2.86191745
-2.80055362
-2.71719314
-2.64364261
-2.70344781
-2.88655004
-3.23268848
-3.65594384
-3.70305827
-3.37452134
-3.11699341
-2.82375045
-2.49820018
-1.36685457
-0.574711274
-0.545215246
-2.26055053
-3.47352828
-3.68258624
-3.7791632
-3.8297987
-3.8394913
-3.8298139
-3.81680896
-3.81029033
-3.8113705
-3.81713401
-3.82367713
-3.82867691
-3.83027528
-3.82636265
-3.81724759
-3.80660119
-3.79730957
-3.79126825
-3.78792478
-3.77953324
-3.75146819
-3.69982246
-3.6476333
-3.59982436
-3.55575724
-3.51733218
-3.48248602
-3.45087265
-3.42161228
-3.39435717
-3.36890289
-3.34511685
-3.32288171
-3.30213423
-3.28286586
-3.2650795
-3.24877692
-3.23394541
-3.22055494
-3.20856206
-3.19791679
-3.18856787
-3.1804636
-3.1735534
-3.16778714
-3.16311206
-3.15946987
-3.15679607
-3.15502201
-3.15408155
-3.15391846
-3.15448202
-3.1557139
-3.15751187
-3.15972489
-3.16221331
-3.16489689
-3.16778327
-3.17087397
-3.17414954
-3.17758544
-3.18112702
-3.18472092
-3.1883612
-3.19206362
-3.19580939
-3.19956061
-3.20328596
-3.20697454
-3.21065447
-3.21438104
-3.21817742
-3.22201404
-3.22583805
-3.22954087
-3.23294064
-3.23566323
-3.23718247
-3.23658286
-3.23331161
-3.22578204
-3.21167846
-3.18689413
-3.1471179
-3.08593394
-2.98098367
-2.85530943
-2.75325094
-2.67488355
-2.6136186
-2.55128073
-2.47491101
-2.40267349
-2.37259197
-2.40630412
-2.49467893
-2.61139961
-2.72125317
-2.79669893
-2.8340305
-2.83584067
-2.803571
-2.73543582
-2.63801622
-2.51762752
-2.36286575
-2.22788265
-2.3108048
-2.59278018
-3.03237239
-3.57658442
-3.70901767
-3.49187851
-3.26857599
-3.01868791
-2.74184237
-1.67680153
-0.579427311
-0.547276465
-1.56713431
-3.20806951
-3.54151768
-3.67961327
-3.77171617
-3.81043144
-3.81875303
-3.81299829
-3.80451596
-3.79867353
-3.79867053
-3.80333707
-3.81041282
-3.81736594
-3.82047255
-3.81748063
-3.8102312
-3.80136323
-3.79203865
-3.78075668
-3.76046261
-3.71517021
-3.64744945
-3.58452779
-3.52906276
-3.47923006
-3.43628998
-3.39769243
-3.36290807
-3.33089441
-3.30125582
-3.27371948
-3.2480961
-3.22425676
-3.20212916
-3.18169643
-3.16295679
-3.14590578
-3.13052174
-3.11676378
-3.1045766
-3.093899
-3.08466996
-3.07682928
-3.07031909
-3.06508272
-3.06106094
-3.05818856
-3.0563936
-3.05560028
-3.05573787
-3.05675084
-3.05859439
-3.06121791
-3.06451891
-3.06832103
-3.07244322
-3.0767794
-3.08134527
-3.08615984
-3.09121442
-3.09648926
-3.10191585
-3.10741844
-3.11298308
-3.118635
-3.12436316
-3.13013115
-3.13590276
-3.1416563
-3.14741187
-3.15322581
-3.15911911
-3.16505192
-3.17096056
-3.17672461
-3.18214543
-3.18681863
-3.19017792
-3.19124789
-3.18932254
-3.1827974
-3.16924099
-3.1444972
-3.10378673
-3.04164688
-2.93780391
-2.8096081
-2.69627043
-2.60184047
-2.52214416
-2.4383899
-2.34015383
-2.25321934
-2.21914891
-2.25502215
-2.34554054
-2.46137055
-2.56784018
-2.6386075
-2.66955075
-2.66109172
-2.61157193
-2.51290955
-2.36253013
-2.16755388
-1.93501996
-1.7451821
-1.84834289
-2.26707619
-2.82109359
-3.49119498
-3.69697731
-3.55648046
-3.36595335
-3.1554553
-2.92412178
-1.99747511
-0.582262334
-0.553819044
-0.829726021
-2.86324423
-3.37635981
-3.54650518
-3.67500872
-3.73977792
-3.76392512
-3.76473532
-3.75569749
-3.74615562
-3.744408
-3.75108847
-3.76370134
-3.7789426
-3.79152519
-3.7967637
-3.79462644
-3.78752104
-3.77628958
-3.75903434
-3.72978511
-3.67130838
-3.59068423
-3.51838087
-3.45581816
-3.40048723
-3.35310654
-3.31076488
-3.2727874
-3.23799598
-3.2060081
-3.17641286
-3.14897972
-3.12357874
-3.10012538
-3.07859101
-3.05896559
-3.04123435
-3.02536284
-3.0112959
-2.99896371
-2.98829208
-2.97920934
-2.97164653
-2.96553867
-2.96082281
-2.95743371
-2.95529958
-2.95434124
-2.95447578
-2.95562804
-2.95774431
-2.96078875
-2.96472613
-2.96945988
-2.97478402
-2.98047255
-2.98638637
-2.99254899
-2.99900237
-3.00575513
-3.01279783
-3.02004815
-3.02740203
-3.03483221
-3.04237365
-3.05002651
-3.05775997
-3.06553527
-3.07331854
-3.08111795
-3.08898793
-3.09694431
-3.10493284
-3.11287501
-3.12063496
-3.12799366
-3.13451263
-3.13957939
-3.14215558
-3.14138767
-3.1356306
-3.12235876
-3.09738436
-3.05552579
-2.99233603
-2.88976828
-2.76010206
-2.63703258
-2.52748351
-2.42908481
-2.32272465
-2.20276325
-2.1035472
-2.06760852
-2.10515302
-2.19464861
-2.3048173
-2.40278396
-2.46416488
-2.48433658
-2.46091547
-2.38818996
-2.24929762
-2.03202251
-1.76375186
-1.45502859
-1.20539187
-1.34035221
-1.90345461
-2.60431939
-3.40256596
-3.67566208
-3.58947809
-3.42678391
-3.24868474
-3.05379085
-2.29199889
-0.580708415
-0.557113258
-0.524204947
-2.37569106
-3.19682574
-3.38992063
-3.54882222
-3.63652379
-3.67437639
-3.68127238
-3.67325453
-3.66292056
-3.6624844
-3.67373069
-3.69398507
-3.71931938
-3.74303212
-3.75815142
-3.76270093
-3.75878628
-3.74717482
-3.72584268
-3.68999775
-3.62136813
-3.53021607
-3.4495897
-3.38039024
-3.3197729
-3.26800419
-3.22191972
-3.18073397
-3.14319534
-3.10888056
-3.07727415
-3.04809021
-3.02120433
-2.99651462
-2.97397545
-2.95356381
-2.93524993
-2.9189822
-2.90468749
-2.89227867
-2.88166697
-2.87276936
-2.86550817
-2.85981179
-2.85561158
-2.8528369
-2.85141
-2.85124484
-2.85225147
-2.8543503
-2.85749009
-2.86164703
-2.8668118
-2.87289336
-2.8796596
-2.88683466
-2.89423759
-2.90189826
-2.9098875
-2.91823917
-2.92696134
-2.93595868
-2.94509189
-2.95431348
-2.96366766
-2.97316984
-2.98280003
-2.99252045
-3.0022838
-3.01208169
-3.02196303
-3.03193525
-3.04192529
-3.05183569
-3.06151146
-3.07070961
-3.07895367
-3.08557895
-3.08948005
-3.08966526
-3.08442987
-3.07117405
-3.04569818
-3.00249564
-2.93817594
-2.83694089
-2.70656081
-2.5751432
-2.45149115
-2.33420465
-2.20448234
-2.06401771
-1.95573722
-1.91993729
-1.95808304
-2.04285682
-2.14227585
-2.22653368
-2.2738089
-2.27864017
-2.23506287
-2.13162387
-1.94180911
-1.66121085
-1.312167
-1.08407909
-1.07157247
-1.02657265
-1.51124389
-2.39031461
-3.31251694
-3.64950961
-3.60335734
-3.46293464
-3.31027857
-3.14256179
-2.54235207
-0.747923479
-0.560909995
-0.534020874
-1.69252329
-3.00608129
-3.21825605
-3.40067106
-3.50907005
-3.55936333
-3.57223639
-3.56643803
-3.55720131
-3.55982193
-3.57687263
-3.60569806
-3.64198301
-3.67778539
-3.70400286
-3.71662526
-3.71730055
-3.70681085
-3.68309816
-3.64249783
-3.56601501
-3.46620844
-3.3781804
-3.302792
-3.23710553
-3.18102256
-3.13122135
-3.08684128
-3.04660182
-3.01003749
-2.97650268
-2.94566677
-2.91741266
-2.89161468
-2.86820373
-2.84713839
-2.82836885
-2.81182185
-2.79740249
-2.78500377
-2.774521
-2.76585948
-2.75893327
-2.75366497
-2.74998111
-2.74780655
-2.7470584
-2.74764434
-2.7494675
-2.75244361
-2.75652359
-2.76170286
-2.7679991
-2.77533485
-2.7834541
-2.79202748
-2.8008213
-2.80986867
-2.81927588
-2.82911155
-2.83941013
-2.850065
-2.86089356
-2.87181891
-2.88289326
-2.89415199
-2.90559275
-2.91718356
-2.92886262
-2.94059935
-2.95243276
-2.96435837
-2.97627987
-2.98807668
-2.99957109
-3.01049254
-3.02032276
-3.02833894
-3.03336377
-3.03427861
-3.0293065
-3.01579216
-2.98954582
-2.94482179
-2.87930777
-2.77938367
-2.64881866
-2.51028085
-2.37351857
-2.23715562
-2.08388303
-1.92532569
-1.81181131
-1.77784759
-1.81491189
-1.89076955
-1.97401988
-2.03917862
-2.06742438
-2.05156658
-1.98150825
-1.8396307
-1.60379411
-1.24446453
-1.0914866
-1.08500097
-1.07287994
-1.03157446
-1.10346515
-2.18638188
-3.22197777
-3.62084054
-3.60537034
-3.48209214
-3.34894572
-3.20083216
-2.74568798
-1.07837882
-0.568212736
-0.541119887
-0.850816015
-2.78195102
-3.04054392
-3.23578553
-3.36364359
-3.42599882
-3.44513922
-3.44244305
-3.43533486
-3.44175379
-3.46490214
-3.50237313
-3.54973642
-3.59800185
-3.63612131
-3.6579722
-3.66452521
-3.65654086
-3.63191402
-3.58798999
-3.50543531
-3.39852357
-3.30395785
-3.22285816
-3.15235906
-3.0920814
-3.0386328
-2.99111678
-2.94827078
-2.90956815
-2.87422832
-2.8418826
-2.81241854
-2.78567912
-2.76156439
-2.74000883
-2.72093757
-2.70425133
-2.68982981
-2.67754388
-2.66727212
-2.6589083
-2.6523591
-2.64754261
-2.6443816
-2.64279759
-2.64270362
-2.64400182
-2.64658866
-2.6503741
-2.65531353
-2.66142328
-2.66875212
-2.67724253
-2.68662015
-2.69649927
-2.70658005
-2.71689371
-2.7275894
-2.73878181
-2.75054246
-2.76275614
-2.77518744
-2.78771819
-2.80040626
-2.8133128
-2.82646164
-2.83983307
-2.85334991
-2.8669523
-2.88066396
-2.89446487
-2.90823111
-2.92181511
-2.93501293
-2.94752291
-2.95878121
-2.96800124
-2.97392828
-2.97532894
-2.97034875
-2.95629598
-2.92901376
-2.88260822
-2.8158487
-2.71715317
-2.58675574
-2.44217626
-2.29316767
-2.137492
-1.96126264
-1.78828601
-1.67377579
-1.64289872
-1.67659063
-1.7387681
-1.79979873
-1.83978396
-1.84346296
-1.80122962
-1.70041632
-1.5271477
-1.22204212
-1.09529094
-1.09099197
-1.08387565
-1.07267575
-1.03486773
-0.901768405
-1.99075844
-3.1307161
-3.59091645
-3.59978852
-3.48920702
-3.37078232
-3.23652685
-2.90447941
-1.4627992
-0.577682759
-0.542475555
-0.503631445
-2.42852191
-2.86742442
-3.05759884
-3.20446965
-3.27921968
-3.30524048
-3.30640493
-3.30195618
-3.3123142
-3.3412745
-3.38689141
-3.44490737
-3.50550258
-3.5559169
-3.58787571
-3.60141878
-3.59715484
-3.57286043
-3.52674096
-3.43953096
-3.32684648
-3.22658896
-3.14030558
-3.06530788
-3.00101542
-2.94404336
-2.893505
-2.84819047
-2.80750109
-2.77052425
-2.73685537
-2.70638071
-2.67890345
-2.65428498
-2.63243019
-2.61323446
-2.59656836
-2.58228297
-2.57022533
-2.56025709
-2.55226117
-2.54613829
-2.54180365
-2.5391776
-2.53817966
-2.53872004
-2.54069633
-2.54399836
-2.54852904
-2.55425338
-2.56120437
-2.56946659
-2.57900928
-2.58954824
-2.60063992
-2.61190184
-2.62335573
-2.63520215
-2.64761521
-2.66071602
-2.67438452
-2.68832127
-2.70235155
-2.71653538
-2.73096682
-2.74570679
-2.76075614
-2.77602138
-2.79140447
-2.80690704
-2.82248994
-2.83799773
-2.85325239
-2.86802054
-2.88196587
-2.89447532
-2.90469313
-2.91128131
-2.91290417
-2.90763191
-2.89275698
-2.86417934
-2.81594869
-2.74790119
-2.65030284
-2.52028952
-2.37059076
-2.20995104
-2.03470965
-1.83718414
-1.6547399
-1.5436586
-1.51656342
-1.54387143
-1.5864956
-1.61849054
-1.62697165
-1.60189069
-1.53707849
-1.40582033
-1.17128243
-1.09695343
-1.09417686
-1.08950501
-1.08259537
-1.07206195
-1.03731352
-0.900232982
-1.79289365
-3.03792979
-3.56050301
-3.58918053
-3.48749569
-3.3799855
-3.25536633
-3.02197127
-1.83504559
-0.587817604
-0.545099876
-0.520548168
-1.83763544
-2.70857825
-2.86963357
-3.03422855
-3.12240425
-3.15612119
-3.16192064
-3.16046012
-3.17461729
-3.20880545
-3.26170732
-3.32952949
-3.40187007
-3.46455232
-3.50717383
-3.5285883
-3.52905986
-3.50614488
-3.45873974
-3.36803428
-3.25075747
-3.14565345
-3.05477094
-2.97565525
-2.90759597
-2.8472851
-2.79388724
-2.74629529
-2.70381486
-2.66541627
-2.63065545
-2.59940878
-2.57143088
-2.54653684
-2.52459711
-2.50547313
-2.48900175
-2.47500266
-2.46329813