/*--------------------------------*- C++ -*----------------------------------*\
| =========                 |                                                 |
| \\      /  F ield         | OpenFOAM: The Open Source CFD Toolbox           |
|  \\    /   O peration     | Version:  2506                                  |
|   \\  /    A nd           | Website:  www.openfoam.com                      |
|    \\/     M anipulation  |                                                 |
\*---------------------------------------------------------------------------*/
FoamFile
{
    version     2.0;
    format      ascii;
    arch        "LSB;label=32;scalar=64";
    class       volScalarField;
    location    "2644";
    object      alpha_A;
}
// * * * * * * * * * * * * * * * * * * * * * * * * * * * * * * * * * * * * * //

dimensions      [0 0 0 0 0 0 0];

internalField   nonuniform List<scalar> 
15600
(
0.582374386
0.582359599
0.58240738
0.582450863
0.582439818
0.582438859
0.582443464
0.582444526
0.582445304
0.582445858
0.582446307
0.582446309
0.582445982
0.582445167
0.582443682
0.582441357
0.582438341
0.582434838
0.582430972
0.582427187
0.582424013
0.582421429
0.582419188
0.582417654
0.582416828
0.582416024
0.5824159
0.582405103
0.582371673
0.582330081
0.582291032
0.58225291
0.582217893
0.582186015
0.582157763
0.582133301
0.582112858
0.582096541
0.58208438
0.58207631
0.582072214
0.5820719
0.582075121
0.58208159
0.582090981
0.582102946
0.582117126
0.582133156
0.582150677
0.582169342
0.582188818
0.582208791
0.582228966
0.58224907
0.58226885
0.582288078
0.582306552
0.582324099
0.582340581
0.5823559
0.582369998
0.58238285
0.582394452
0.582404809
0.582413944
0.582421892
0.582428708
0.582434458
0.582439213
0.582443044
0.582446022
0.582448224
0.58244973
0.58245062
0.582450974
0.582450868
0.582450371
0.582449555
0.58244849
0.582447248
0.582445908
0.582444559
0.582443301
0.582442251
0.582441529
0.582441272
0.582441568
0.582442531
0.582444086
0.582446229
0.58244842
0.582450354
0.582450816
0.582450179
0.582450447
0.582450816
0.582450965
0.582450259
0.582448196
0.582443595
0.582434599
0.582418896
0.58239468
0.582361885
0.582326386
0.582295342
0.582268875
0.582244989
0.582220578
0.582190166
0.582136869
0.582046074
0.581912
0.581697056
0.581364058
0.58094984
0.581006028
0.581649828
0.582190346
0.582363218
0.57862014
0.578619146
0.580305944
0.582287962
0.582264495
0.582137326
0.582235271
0.582262795
0.582282021
0.582295345
0.582305182
0.58230258
0.582289614
0.582261368
0.582212524
0.582139315
0.58204632
0.581938923
0.581821084
0.58170389
0.581597576
0.581499526
0.581405668
0.581323881
0.581251823
0.581174082
0.581048227
0.580609166
0.579659183
0.578567793
0.577576538
0.576664376
0.575864117
0.575171253
0.574589768
0.574118612
0.573757741
0.573504801
0.573356044
0.573306223
0.57334919
0.573476988
0.573683005
0.573957226
0.574289948
0.574671895
0.575093901
0.575547068
0.576022891
0.576513355
0.577010981
0.577508855
0.578000646
0.57848062
0.578943645
0.579385216
0.579801495
0.580189382
0.580546591
0.580871698
0.581164071
0.581423718
0.581651042
0.581846727
0.582011746
0.582147434
0.582255436
0.582337582
0.582395806
0.582432083
0.582448442
0.582446996
0.582429912
0.58239933
0.582357307
0.582305803
0.582246728
0.582182023
0.582113705
0.582043948
0.581975166
0.581910174
0.581852199
0.581805146
0.581773264
0.581761577
0.581774395
0.58181671
0.581888364
0.581992917
0.582115949
0.582256871
0.582386758
0.58242173
0.582413445
0.582390098
0.582341066
0.582263628
0.582145791
0.58195218
0.581639637
0.581162754
0.580495524
0.579647793
0.578741738
0.577929667
0.57723568
0.576618885
0.576008418
0.575285498
0.574100732
0.572108966
0.569155573
0.564605408
0.557815757
0.549052189
0.546901677
0.556824642
0.570493547
0.577204625
0.535195308
0.54113821
0.557097697
0.577660499
0.581872414
0.580457772
0.580880388
0.581051516
0.58116274
0.581234536
0.581277347
0.581231666
0.58110148
0.580847674
0.580431258
0.57983517
0.579095848
0.57824848
0.577322498
0.576379748
0.575451629
0.574501509
0.573515612
0.572524949
0.571493835
0.570298299
0.568251382
0.564373192
0.558314755
0.551846514
0.546264134
0.541574353
0.537786586
0.534824392
0.532643001
0.531189571
0.530416319
0.530269586
0.530693443
0.531630074
0.533021912
0.534807089
0.536950158
0.539358539
0.541973322
0.544740397
0.547609232
0.550533164
0.553469541
0.556379747
0.559229129
0.561986888
0.564625972
0.567122986
0.56945811
0.571615102
0.57358137
0.575348089
0.576910303
0.578266789
0.579419554
0.580373067
0.581133411
0.581707997
0.582105609
0.582336486
0.582411975
0.582344108
0.582145346
0.581828557
0.581407149
0.580894923
0.580305637
0.57965263
0.578948628
0.578206017
0.57743729
0.576655628
0.57587513
0.575111449
0.574382465
0.573709509
0.573117775
0.572638216
0.572306276
0.572165778
0.572272852
0.572668392
0.573376028
0.57444685
0.575818988
0.577572995
0.579340617
0.579947186
0.579807481
0.579382403
0.578731613
0.577868118
0.57671155
0.575006301
0.572516539
0.569076868
0.564676744
0.559444517
0.553905049
0.548764007
0.54430399
0.540376634
0.536624469
0.532468293
0.526298309
0.516194162
0.50117611
0.479291791
0.448923877
0.410100826
0.385993681
0.40247876
0.464593988
0.514709624
0.320813899
0.370139644
0.445367257
0.539674311
0.58092479
0.576528561
0.576790807
0.577250611
0.577508062
0.577635704
0.577648165
0.57734602
0.576696789
0.5755442
0.573752005
0.571307543
0.568352974
0.564997554
0.561333622
0.55748176
0.553373536
0.548818816
0.543804608
0.538319889
0.53218302
0.524896156
0.513836267
0.501139122
0.48732745
0.473510657
0.462912504
0.455932701
0.45183645
0.450189562
0.450605825
0.452764142
0.456376378
0.4611793
0.466934861
0.473428933
0.48043872
0.48796768
0.495727294
0.503545731
0.5113074
0.518914689
0.526284542
0.533346883
0.540043122
0.546324852
0.552152716
0.557495484
0.562329317
0.566637165
0.570408282
0.573637831
0.576326545
0.578480359
0.580109945
0.581230065
0.581858717
0.582016317
0.58172521
0.581009559
0.579895462
0.57841039
0.576583136
0.574443495
0.572022115
0.569351193
0.566464194
0.563395444
0.560178467
0.556846029
0.553430084
0.549962848
0.546478136
0.5430126
0.539606277
0.536304234
0.533159101
0.530234101
0.527606442
0.525371099
0.523644172
0.52257758
0.522491227
0.523483163
0.52574684
0.529530625
0.534935801
0.542637801
0.549997981
0.552230567
0.551835308
0.549991336
0.547729252
0.544784988
0.540834051
0.535112481
0.527078859
0.51673002
0.504513081
0.490862596
0.47616692
0.461447645
0.44792932
0.435768229
0.424424743
0.412942477
0.398748353
0.377238462
0.345556801
0.303551481
0.253814473
0.195583275
0.125738428
0.068009772
0.124951141
0.232960651
-0.207070797
-0.0569221125
0.146167036
0.390209807
0.56687689
0.572060773
0.569169975
0.569672912
0.569782262
0.569601073
0.569134373
0.567933285
0.565785513
0.562281956
0.557138994
0.550481317
0.542661739
0.533886646
0.524294218
0.513842649
0.501920266
0.488041819
0.47231408
0.454486107
0.434285378
0.411378783
0.383768446
0.370089563
0.367606898
0.365697312
0.368015858
0.375906628
0.386734438
0.39956204
0.413546103
0.428126325
0.44284975
0.45737101
0.471423989
0.484799412
0.497457105
0.509355568
0.520314644
0.53029503
0.539294334
0.547323467
0.554402243
0.560556322
0.565814966
0.570209571
0.573772744
0.576537692
0.578537869
0.5798067
0.580377308
0.580282164
0.579552668
0.578218747
0.576308563
0.573848604
0.570864047
0.567379272
0.563419125
0.559009018
0.554175404
0.548944576
0.543344467
0.537404481
0.531155965
0.52463239
0.517866609
0.510893903
0.503748674
0.496466455
0.489084696
0.481643112
0.474184705
0.466755663
0.459405692
0.452188667
0.445166946
0.438412136
0.432013819
0.426076146
0.420736354
0.416185844
0.413206462
0.411755731
0.412332808
0.415362043
0.421755425
0.433327949
0.442063179
0.442275847
0.443078786
0.441579881
0.440407968
0.437784258
0.432930429
0.424993766
0.413372957
0.399022046
0.383403371
0.366915564
0.347129237
0.323245567
0.298057337
0.27346888
0.250195411
0.228948354
0.21075107
0.18997832
0.161199718
0.132416694
0.117751874
0.110782296
0.00776325531
-0.228048553
-0.364287361
-0.344301887
-0.883314038
-0.657231081
-0.337106514
0.0507670828
0.486990643
0.570654713
0.559876887
0.559025057
0.557837187
0.556099021
0.55387221
0.550399829
0.545004154
0.536908531
0.525781581
0.512223811
0.496865338
0.479970541
0.461585295
0.440993021
0.416483511
0.387598191
0.355198772
0.318951116
0.279623569
0.240537311
0.209150953
0.228606783
0.27967227
0.32422041
0.36185174
0.397472701
0.42861175
0.455752751
0.479129337
0.499138919
0.51611409
0.530374043
0.54220958
0.551894477
0.559756697
0.565992845
0.57077891
0.574291032
0.57668429
0.578092141
0.578628954
0.578392433
0.577465941
0.575920724
0.57381789
0.571209987
0.568142159
0.564653001
0.56077503
0.556534956
0.551953884
0.547047752
0.541827936
0.53630226
0.530475893
0.524352101
0.517934859
0.511229202
0.504242197
0.496980713
0.489454942
0.481677714
0.473663945
0.465428975
0.456986375
0.448350935
0.439538325
0.430566919
0.421459772
0.412243555
0.402948108
0.393602677
0.384233742
0.374861812
0.36550523
0.356172542
0.346870836
0.337582551
0.328286518
0.318967654
0.310385876
0.302071758
0.29436877
0.287077776
0.281474241
0.278486319
0.26671827
0.254394001
0.2581104
0.262841649
0.269249387
0.273226128
0.273620201
0.270653342
0.2641753
0.256661401
0.250678707
0.245922891
0.23471857
0.211889967
0.180909633
0.146108467
0.111036532
0.081228666
0.068049035
0.0691049062
0.076146866
0.105169947
0.177099341
0.271177987
0.186510901
-0.224402821
-0.69156154
-0.942141468
-1.35895711
-1.14854386
-0.832697523
-0.4392603
0.251598043
0.565911366
0.554523543
0.54919644
0.544391553
0.538495027
0.531992276
0.523979059
0.512972504
0.497905882
0.478822084
0.457330305
0.434283052
0.409898775
0.383934146
0.354523193
0.318823293
0.277490757
0.233295425
0.18647216
0.140448235
0.105523954
0.101110406
0.18118266
0.300234377
0.38884819
0.447412561
0.490439585
0.520694286
0.542166343
0.557228
0.567576163
0.574359595
0.578407779
0.580334064
0.580613302
0.579598241
0.577552509
0.574690059
0.571181774
0.567162181
0.562737564
0.557991658
0.552990437
0.54778592
0.542419127
0.536922458
0.531321335
0.525635077
0.519877462
0.514056968
0.508177023
0.502236381
0.496229877
0.490148798
0.483981211
0.477711824
0.471322812
0.464799563
0.458132334
0.451316514
0.444346878
0.437221657
0.429940627
0.422505042
0.414915229
0.40717517
0.399287373
0.391252047
0.383070749
0.374750752
0.366304829
0.357750643
0.349103349
0.340368355
0.331534814
0.322579193
0.313450117
0.304071738
0.29430172
0.283938954
0.272712674
0.261000018
0.247844457
0.232939419
0.2148292
0.193709227
0.166875558
0.122570026
0.0901041792
0.0911095223
0.100655553
0.114029267
0.125090129
0.131810339
0.135297359
0.13652964
0.140171984
0.150265158
0.165770209
0.174180426
0.165246503
0.141382188
0.1080374
0.070906697
0.0404138142
0.039176161
0.0703614249
0.122179418
0.209076001
0.346192669
0.500968154
0.488317954
0.0715438096
-0.666343663
-1.24212118
-1.49532611
-1.37193536
-1.16938814
-0.932658977
-0.170857195
0.513200158
0.559855757
0.547060853
0.535896194
0.522205533
0.507788477
0.492339225
0.473498226
0.45039964
0.424223421
0.398033538
0.37255044
0.347548934
0.322084937
0.292788146
0.256008826
0.214194695
0.172373458
0.131538408
0.0978244149
0.0867988742
0.121288932
0.24579791
0.39230768
0.48271604
0.530511407
0.558209434
0.573006946
0.580121108
0.582371869
0.581425722
0.578304069
0.573676663
0.568009387
0.561613523
0.554702173
0.547455724
0.540014126
0.532481962
0.524937929
0.517440638
0.510032724
0.502744657
0.495597728
0.488606091
0.481778542
0.475119626
0.468629796
0.462305462
0.456139035
0.450119202
0.444231503
0.43845904
0.432781525
0.427173729
0.421603415
0.416033463
0.410434508
0.40478958
0.39909314
0.393337064
0.387510638
0.381601851
0.375600152
0.369499979
0.36330476
0.357015171
0.350622856
0.344116709
0.337491248
0.330749618
0.323904802
0.316969366
0.309941413
0.30279585
0.295489749
0.287943102
0.280037892
0.27156392
0.262216121
0.251562177
0.239729169
0.225443436
0.2078158
0.18442142
0.15408194
0.110884527
0.0417555517
-0.0128358547
-0.024062686
-0.0182811933
-0.00490202026
0.00802486529
0.0164645475
0.0212037415
0.02519447
0.0363918881
0.0608130285
0.0966179469
0.127404872
0.138204708
0.129736624
0.107647032
0.0784513195
0.0548088493
0.0651527552
0.11646328
0.1924899
0.299664776
0.446097014
0.598542365
0.658230186
0.408719071
-0.357333443
-1.17173788
-1.34521653
-1.34594837
-1.29927103
-1.31242213
-0.688301023
0.320464675
0.571658452
0.558034452
0.540399787
0.516709049
0.491209639
0.465965495
0.438501685
0.409153886
0.38093596
0.358030465
0.339913454
0.324650682
0.309627536
0.28968289
0.260736584
0.226846653
0.194928291
0.166951612
0.150861099
0.163224838
0.221257746
0.350532157
0.476830535
0.540727268
0.566663539
0.576087024
0.576740802
0.572626718
0.565874196
0.557526421
0.548200217
0.538281187
0.528061103
0.517690253
0.507298334
0.497003729
0.486897851
0.477048942
0.467507266
0.458307527
0.449471607
0.44101175
0.432933149
0.42523541
0.417914175
0.410962103
0.404368554
0.39811942
0.392197306
0.386582176
0.381252371
0.376185222
0.371353897
0.366722725
0.362242029
0.357852259
0.353507676
0.349186849
0.344892124
0.34061518
0.336334388
0.332026124
0.327668797
0.323251823
0.318782287
0.31426518
0.30968752
0.305027049
0.300265685
0.295397427
0.29043318
0.285388325
0.280260231
0.275017272
0.26960748
0.263937053
0.257866142
0.251145585
0.24341139
0.234125878
0.223275588
0.2094303
0.191289419
0.165852939
0.130857648
0.0787736387
-0.00521877344
-0.0798183955
-0.108678188
-0.113825037
-0.106953765
-0.0978758149
-0.093367728
-0.0936562064
-0.0928777069
-0.0787923417
-0.0434022507
0.0101081082
0.061577113
0.0915355387
0.0989066761
0.0892774244
0.0693337437
0.0518645165
0.0662079479
0.12084086
0.195552659
0.290799217
0.41688285
0.545711218
0.65659708
0.601144508
0.02255366
-0.84571642
-1.02288363
-1.14671967
-1.25218532
-1.54505662
-1.18040249
-0.0654996085
0.554775785
0.576421649
0.559548251
0.530069396
0.494642411
0.460113859
0.425900474
0.394769643
0.371506723
0.35977668
0.356043508
0.355193983
0.352579926
0.342215587
0.320741199
0.293663969
0.26936204
0.250982584
0.246927935
0.271177967
0.331856541
0.437600207
0.52410106
0.558456614
0.565676401
0.561355241
0.552286339
0.540784603
0.528250036
0.51515496
0.501798502
0.488375554
0.475061084
0.46194785
0.449115992
0.436654864
0.424636608
0.413117934
0.402140165
0.391729428
0.381898851
0.372651896
0.363985159
0.355889623
0.348352537
0.341358581
0.334889239
0.328922576
0.32343384
0.318396798
0.313785556
0.309575212
0.305735759
0.302222905
0.298967918
0.295883639
0.292903448
0.290003491
0.287198672
0.284479347
0.281814322
0.279168928
0.276507519
0.273812762
0.271097108
0.268374002
0.265628481
0.262827457
0.25993884
0.256945568
0.253855844
0.250689234
0.247444008
0.244083251
0.240547916
0.23673389
0.232484923
0.227520772
0.221434805
0.213603026
0.20389688
0.190809972
0.172730878
0.146292393
0.108351389
0.0509073556
-0.0418662258
-0.132791194
-0.180724414
-0.201000314
-0.20529819
-0.204866725
-0.209445861
-0.220173609
-0.227237217
-0.213573
-0.169802801
-0.101272499
-0.0320405418
0.0141789756
0.03448589
0.034148211
0.0195521398
0.00239187475
0.0104092396
0.0526265035
0.106783797
0.173516806
0.277416736
0.393485675
0.552052937
0.649572927
0.311681757
-0.439125728
-0.648879508
-0.857731729
-1.07892131
-1.64156589
-1.58628752
-0.576659108
0.445366895
0.580238408
0.579626817
0.558040271
0.521988573
0.483931122
0.447778006
0.419469753
0.40471556
0.404887032
0.413012344
0.421438127
0.425016163
0.418849075
0.401052815
0.377667919
0.357455474
0.34424745
0.34551277
0.37108387
0.421277121
0.493737262
0.540953653
0.551377008
0.544556702
0.530220549
0.514202213
0.497381983
0.480625484
0.463964658
0.447478205
0.43124462
0.415386403
0.399968627
0.38504505
0.370695873
0.356990412
0.343986369
0.331725368
0.320231917
0.309515549
0.299574812
0.290400669
0.281977698
0.274286438
0.267304914
0.261007734
0.255365877
0.250347917
0.245922383
0.242060833
0.238738884
0.235926624
0.233573427
0.231590295
0.229856704
0.228280369
0.226835702
0.225548416
0.224411403
0.223386944
0.222428489
0.221482939
0.220522938
0.21956666
0.218639427
0.217726744
0.216784882
0.215765925
0.214638809
0.21340691
0.212093549
0.210697319
0.209174391
0.207457038
0.205429717
0.202919305
0.199614235
0.195069105
0.188578555
0.179893074
0.167458517
0.149410385
0.122110566
0.0816369433
0.0202114607
-0.0780359995
-0.181762324
-0.248314828
-0.285959625
-0.30471398
-0.316917647
-0.335136412
-0.360637753
-0.378608172
-0.367262825
-0.316959304
-0.236047354
-0.152447143
-0.0935890666
-0.0641134248
-0.0594158152
-0.0739339227
-0.0979865347
-0.106840016
-0.0910603355
-0.0723578645
-0.0424901334
0.0514410508
0.180212809
0.396662315
0.618758325
0.474179041
-0.0862143431
-0.314086622
-0.555409022
-0.835934099
-1.62111079
-1.88738554
-1.10939933
0.198990489
0.543826961
0.57656471
0.580424023
0.559037244
0.527782339
0.496169958
0.473018764
0.464344089
0.469576165
0.480871919
0.490734759
0.495086499
0.490569701
0.475874958
0.455972082
0.438798592
0.428310419
0.430395946
0.450997604
0.485656202
0.525720793
0.540036841
0.531721584
0.513764003
0.491405517
0.46973146
0.448473692
0.428104406
0.408297513
0.388965133
0.370130545
0.351871657
0.334241268
0.317282012
0.301075396
0.285696341
0.271209101
0.257659256
0.245072208
0.233455511
0.22280387
0.213103404
0.20433279
0.19646617
0.18947511
0.183327398
0.177986836
0.173415226
0.169576097
0.16643959
0.163984396
0.162184371
0.160985862
0.160279409
0.159905932
0.159743611
0.159758607
0.159988152
0.160434742
0.161056353
0.161794551
0.162575202
0.163356554
0.164161933
0.165031686
0.165954473
0.166876446
0.167732105
0.168472994
0.169094695
0.169622953
0.170054987
0.170336989
0.170389333
0.170082065
0.169222556
0.167464937
0.16432369
0.159013364
0.151136873
0.139136664
0.120895289
0.0925656096
0.0495066083
-0.0154048276
-0.11726717
-0.230886591
-0.314820716
-0.370871757
-0.406413689
-0.43463581
-0.470486399
-0.514022152
-0.54456237
-0.536427358
-0.481151429
-0.390754792
-0.296672213
-0.229261599
-0.194716495
-0.189490703
-0.209442961
-0.247849826
-0.284234971
-0.308569226
-0.339338634
-0.352896531
-0.249832887
-0.0735620046
0.215682109
0.554398939
0.544533532
0.161483034
-0.0580864754
-0.291345285
-0.578026991
-1.50429891
-1.96885513
-1.60169463
-0.175910707
0.456016153
0.534634707
0.574668837
0.581109788
0.566348035
0.544799438
0.527023099
0.519595919
0.522527405
0.530859627
0.539242705
0.54451466
0.543738504
0.534756576
0.520297296
0.506796728
0.498129693
0.49869675
0.51160165
0.530310616
0.542375519
0.529894231
0.506163526
0.478557317
0.449113242
0.422293793
0.396895179
0.373076004
0.350200404
0.32806151
0.30661311
0.285925748
0.266035911
0.246985348
0.228861734
0.211749374
0.195720687
0.180825707
0.167090706
0.154520891
0.143106702
0.132829098
0.12366056
0.115568561
0.108517952
0.102469402
0.0973791207
0.0932017152
0.0898956011
0.0874303284
0.085790176
0.0849569637
0.0848785436
0.085426247
0.0863996531
0.0876397461
0.0890946323
0.0908184719
0.0928293461
0.0950843067
0.0975140075
0.100019764
0.10254013
0.105102124
0.107764138
0.110521076
0.113310044
0.116046539
0.118661072
0.121137857
0.123503142
0.125750363
0.127811735
0.129591582
0.130941704
0.131646496
0.131321988
0.129438774
0.125132006
0.11785511
0.10601276
0.0872939564
0.0576664313
0.0118243688
-0.0564124507
-0.160770253
-0.281990308
-0.381786006
-0.456503824
-0.510457013
-0.557602194
-0.614492129
-0.678217197
-0.721797225
-0.71717008
-0.658571158
-0.562050217
-0.461899199
-0.390449968
-0.355221089
-0.354164811
-0.385229109
-0.445747625
-0.520863817
-0.5998387
-0.696154293
-0.763439478
-0.629331019
-0.358307348
0.020741915
0.478096867
0.5645875
0.314271084
0.120893104
-0.0850474518
-0.345903538
-1.31705629
-1.97631157
-1.93037478
-0.646852309
0.319125628
0.455809464
0.531091589
0.570716478
0.576863329
0.567719977
0.554765224
0.545853699
0.543945928
0.549163706
0.558438698
0.568486564
0.575604053
0.575903502
0.569403034
0.560802445
0.553933025
0.552145739
0.556780366
0.56100145
0.549707057
0.515082729
0.477976336
0.441477046
0.405365351
0.37354173
0.344031562
0.316727093
0.290717085
0.265696903
0.241557882
0.218352788
0.196114408
0.174888455
0.154770227
0.135854171
0.118220025
0.101920803
0.0869820371
0.0734050286
0.0611746868
0.0502659578
0.0406445289
0.0322707568
0.0251024274
0.0190927405
0.0141898596
0.0103406697
0.00749815642
0.00563186885
0.00473410984
0.00479931551
0.00578266143
0.0075398317
0.00982840644
0.0124369265
0.0152905835
0.0184641966
0.0219979029
0.0258525638
0.0299501483
0.0341641883
0.0384072772
0.0427076521
0.0471446172
0.0517229052
0.0563723765
0.0609886148
0.0654773254
0.0698072081
0.0740026289
0.0780502939
0.0818637166
0.0853263616
0.0882674791
0.0904447072
0.0914320152
0.0906510722
0.0871580178
0.0802492824
0.0682874286
0.0487883542
0.0175669149
-0.031283783
-0.102799728
-0.208933652
-0.335977034
-0.450059104
-0.543175914
-0.616624971
-0.685191677
-0.765853767
-0.850773481
-0.906902933
-0.905843127
-0.845907069
-0.747168747
-0.645857107
-0.575250647
-0.54398834
-0.552016792
-0.600097199
-0.690943189
-0.817118313
-0.967870701
-1.14997957
-1.28721868
-1.10295066
-0.671497371
-0.181525025
0.399231181
0.561646266
0.402788662
0.241437015
0.0663432509
-0.158971839
-1.09004893
-1.98365627
-1.9335849
-1.16690754
0.132693657
0.352829856
0.453177911
0.524347182
0.550767686
0.553285694
0.544502718
0.534257615
0.529277842
0.534873416
0.549422242
0.568743588
0.587761867
0.600529851
0.604280753
0.601916909
0.597317011
0.593263718
0.590136628
0.581790944
0.551088859
0.497798856
0.448680018
0.403720969
0.361128368
0.324281942
0.290577937
0.259675633
0.230421436
0.202419847
0.175494357
0.149674316
0.125002141
0.101527599
0.0793525865
0.0585803625
0.0392955214
0.021551276
0.00536978061
-0.00925387481
-0.0223420181
-0.0339267784
-0.0440498936
-0.0527584973
-0.0601021273
-0.0661352815
-0.0709181985
-0.0745122304
-0.0769702771
-0.0783224754
-0.07856628
-0.0776896866
-0.0757229196
-0.0728182379
-0.0692664721
-0.0653425763
-0.06115111
-0.0565940608
-0.0516019093
-0.0462037104
-0.0404823944
-0.0345949952
-0.0286622579
-0.0226585021
-0.0164808756
-0.0101106542
-0.00362251204
0.00285901588
0.00921098499
0.0153818142
0.0213911648
0.0272156458
0.0327447211
0.0378356784
0.0422906545
0.0458366602
0.0480017467
0.0481531613
0.0452677321
0.0384866803
0.0261174154
0.00552782638
-0.0275880942
-0.0796600869
-0.154438139
-0.26186796
-0.393365796
-0.520202094
-0.631080556
-0.724709606
-0.816825506
-0.923186725
-1.02914465
-1.09662891
-1.09924925
-1.04045178
-0.943966889
-0.846829266
-0.782230579
-0.759796055
-0.782036746
-0.853315748
-0.983611088
-1.17585766
-1.41793011
-1.69504061
-1.89690548
-1.66843769
-1.01705084
-0.385473209
0.322523153
0.550167615
0.453607533
0.322613747
0.174413763
-0.019089083
-0.854941321
-1.9880715
-1.94377424
-1.68455243
-0.129424525
0.239542682
0.349768203
0.447047667
0.490896921
0.502988744
0.497802597
0.487718239
0.482894856
0.492885557
0.516623783
0.548763415
0.582698567
0.610354043
0.626237153
0.63141356
0.629848865
0.624141973
0.614225985
0.595145537
0.548228161
0.478974023
0.418886534
0.365791512
0.316823014
0.274883586
0.236871416
0.202242613
0.169624174
0.138564783
0.10877027
0.0802582095
0.0530933668
0.0273266807
0.00306368201
-0.0195863927
-0.0405376485
-0.0597403183
-0.0771789676
-0.0928674645
-0.106837278
-0.119128679
-0.129791317
-0.138879981
-0.146451589
-0.152568361
-0.157299111
-0.160713869
-0.162871997
-0.163803356
-0.163493336
-0.161907298
-0.159050936
-0.155077215
-0.150331632
-0.145161404
-0.139710845
-0.133857225
-0.127493432
-0.120630402
-0.113350312
-0.105842926
-0.0982710363
-0.0906169827
-0.0827521067
-0.0746388343
-0.0663525192
-0.058037091
-0.0498480208
-0.0418626838
-0.0340694127
-0.0265053974
-0.0193110892
-0.0126610904
-0.00678506933
-0.0019904499
0.0012012594
0.00209734547
-0.000405769319
-0.00731356957
-0.0203876847
-0.0423819541
-0.0776891753
-0.133169151
-0.211190293
-0.319594603
-0.454497642
-0.592637043
-0.720386002
-0.834607792
-0.952024297
-1.08505048
-1.21076387
-1.28796192
-1.29464834
-1.24003848
-1.1508247
-1.06354474
-1.01031613
-1.00173096
-1.04355377
-1.14487812
-1.32606235
-1.60114114
-1.9332986
-2.30277396
-2.57316451
-2.29053412
-1.40416379
-0.5827887
0.251210385
0.537524969
0.484028126
0.378749845
0.251234188
0.0807894515
-0.633608992
-1.98565145
-1.94890461
-1.89765357
-0.527443864
0.12501231
0.229866112
0.345879582
0.404210153
0.423941515
0.42197574
0.413578342
0.411695419
0.429088936
0.464616083
0.511814881
0.562612756
0.60682666
0.636327729
0.650280115
0.652688043
0.646214942
0.630641829
0.60242224
0.541864606
0.458855915
0.388712878
0.327804685
0.272563583
0.225467783
0.183043479
0.144576403
0.108523029
0.0743353954
0.0416189872
0.0103727542
-0.0193060235
-0.0473698679
-0.0737141827
-0.0982276619
-0.120827376
-0.141471221
-0.160154271
-0.176902329
-0.191757917
-0.204770371
-0.215997474
-0.225501534
-0.233346651
-0.239602529
-0.244346505
-0.247657605
-0.249602349
-0.250210793
-0.249455032
-0.247272696
-0.243631772
-0.238683387
-0.232826689
-0.226491905
-0.219875774
-0.212830774
-0.205203015
-0.196975272
-0.188221107
-0.179164353
-0.17002017
-0.160786586
-0.151307452
-0.141520635
-0.131496866
-0.121397538
-0.111414532
-0.101657492
-0.0921265934
-0.0828767698
-0.0740846554
-0.0659627308
-0.0587771667
-0.0528734615
-0.0488260268
-0.0473929022
-0.0497598555
-0.0570663285
-0.0711523196
-0.0948674782
-0.132655087
-0.191700319
-0.272932933
-0.38210471
-0.519614642
-0.667697625
-0.811271477
-0.946349821
-1.09038212
-1.24991317
-1.39305598
-1.47811712
-1.48967726
-1.44290376
-1.36648947
-1.29503255
-1.25869106
-1.26928724
-1.33670277
-1.47682033
-1.72136718
-2.07463889
-2.50315352
-2.76959538
-2.7501177
-2.68003549
-1.82414729
-0.759466791
0.187938131
0.527677615
0.504382923
0.419552088
0.306502837
0.150175016
-0.435700581
-1.8554133
-1.95481761
-1.91294079
-1.04645533
0.00812672533
0.102152659
0.226966682
0.297419238
0.323570995
0.324718867
0.319115446
0.321964633
0.348511866
0.397156043
0.460508414
0.52920394
0.591011472
0.635269043
0.65914755
0.666552279
0.660327913
0.640254211
0.604259593
0.532177685
0.437310435
0.357990144
0.289644364
0.228275468
0.175999331
0.129092688
0.0867100241
0.0471766213
0.00984327313
-0.025809117
-0.0597887861
-0.0919596368
-0.122283253
-0.15066188
-0.17698677
-0.201182615
-0.223219517
-0.243107091
-0.260886096
-0.276611868
-0.290343471
-0.302146686
-0.312090845
-0.320246739
-0.326691044
-0.331509303
-0.3347897
-0.336606699
-0.336991508
-0.335902928
-0.333242304
-0.328934107
-0.323116646
-0.316241856
-0.308833374
-0.3011565
-0.293040825
-0.284275442
-0.274802613
-0.264676838
-0.254156279
-0.243520711
-0.232794395
-0.221792841
-0.210422578
-0.198742578
-0.186928225
-0.175211681
-0.16374261
-0.152537615
-0.141673453
-0.131369455
-0.121882102
-0.11351865
-0.106666052
-0.101954593
-0.100212701
-0.102710678
-0.110706454
-0.126120815
-0.15187304
-0.192419122
-0.255157095
-0.33955438
-0.449373412
-0.588889638
-0.745647414
-0.903946308
-1.0601025
-1.23150072
-1.41609493
-1.57342449
-1.6644924
-1.68224265
-1.64755811
-1.59000998
-1.54072208
-1.52714547
-1.56328054
-1.66367665
-1.85144287
-2.15292687
-2.59962706
-2.78113175
-2.77103111
-2.75215394
-2.68782524
-2.26359462
-0.899417112
0.13428485
0.52290649
0.520909466
0.451451398
0.347311092
0.197640515
-0.266141628
-1.61380158
-1.96619081
-1.92399671
-1.62227162
-0.151167915
-0.0231032146
0.0950249086
0.175744492
0.207776677
0.212172619
0.210076284
0.218582857
0.255032529
0.317152881
0.39686297
0.483755958
0.563653631
0.623487722
0.658331559
0.67177894
0.666860504
0.643417991
0.600833861
0.519016395
0.413982002
0.326373337
0.251042377
0.18375529
0.126333183
0.0749220447
0.0285926615
-0.0144160798
-0.0548725736
-0.0934303641
-0.130095916
-0.164691389
-0.197193894
-0.227519513
-0.255567046
-0.281273569
-0.304626028
-0.325652682
-0.344412138
-0.360974006
-0.375407395
-0.387785521
-0.398183848
-0.406679074
-0.413354042
-0.418301913
-0.421619989
-0.423391476
-0.423650766
-0.422341611
-0.41932543
-0.414474441
-0.407902708
-0.400110199
-0.391724197
-0.38309894
-0.374045728
-0.364285186
-0.353704076
-0.342324402
-0.330437513
-0.318402348
-0.306283631
-0.293868838
-0.281025025
-0.267789948
-0.254347553
-0.240974154
-0.227868907
-0.215070412
-0.202681344
-0.190970273
-0.180243748
-0.170854468
-0.163233887
-0.158070668
-0.156268288
-0.159184396
-0.168178146
-0.18524578
-0.213348454
-0.256916541
-0.323445358
-0.410946112
-0.521360189
-0.662436643
-0.826689352
-0.998672381
-1.1761551
-1.37489793
-1.58170843
-1.74923155
-1.84461669
-1.87044641
-1.85286438
-1.8211733
-1.8013784
-1.81724255
-1.88556787
-2.02379817
-2.25028204
-2.63345667
-2.78705659
-2.78036142
-2.76927854
-2.75183594
-2.69295415
-2.48566673
-1.00231497
0.0898060225
0.52468307
0.537558142
0.478749364
0.378671636
0.229800754
-0.127394229
-1.33619658
-1.98093932
-1.92610801
-1.86561263
-0.447375672
-0.134320378
-0.0461550034
0.0430223574
0.080902942
0.0888259961
0.0906866015
0.105181367
0.151597275
0.226877139
0.322479442
0.427270775
0.525279439
0.601196186
0.647898596
0.668402712
0.665840145
0.640125285
0.592019508
0.502028888
0.38838047
0.293401443
0.211622482
0.138703766
0.0762396299
0.020358812
-0.0298937939
-0.0763259804
-0.119836295
-0.161219148
-0.200473891
-0.237380168
-0.27193769
-0.304084108
-0.333730757
-0.360831688
-0.385395239
-0.407472329
-0.427141998
-0.444489172
-0.459592883
-0.472532746
-0.483389065
-0.492243377
-0.499183616
-0.50430969
-0.507727684
-0.509530665
-0.509758626
-0.508336867
-0.50508904
-0.499824776
-0.492620651
-0.48401553
-0.474749858
-0.465292332
-0.455444063
-0.444844337
-0.433306421
-0.420803034
-0.40765579
-0.394320001
-0.380919769
-0.367216373
-0.353027508
-0.338357341
-0.323390532
-0.308451433
-0.293800478
-0.279505194
-0.2656981
-0.252703269
-0.240883105
-0.230639765
-0.222451875
-0.217068431
-0.215472087
-0.219111104
-0.229427361
-0.248479429
-0.279239662
-0.326074749
-0.396463614
-0.486994668
-0.598005852
-0.740313829
-0.910979025
-1.09579668
-1.29488366
-1.51989657
-1.744605
-1.91778098
-2.01613404