/*--------------------------------*- C++ -*----------------------------------*\
| =========                 |                                                 |
| \\      /  F ield         | OpenFOAM: The Open Source CFD Toolbox           |
|  \\    /   O peration     | Version:  2506                                  |
|   \\  /    A nd           | Website:  www.openfoam.com                      |
|    \\/     M anipulation  |                                                 |
\*---------------------------------------------------------------------------*/
FoamFile
{
    version     2.0;
    format      ascii;
    arch        "LSB;label=32;scalar=64";
    class       volSymmTensorField;
    location    "2644";
    object      bijDelta;
}
// * * * * * * * * * * * * * * * * * * * * * * * * * * * * * * * * * * * * * //

dimensions      [0 0 0 0 0 0 0];

internalField   nonuniform List<symmTensor> 
15600
(
(-8.53229957e-07 2.24354522e-09 1.13269051e-28 8.53229957e-07 8.24965819e-29 -1.06142177e-46)
(-1.01915302e-06 4.65007996e-08 2.26814349e-25 1.01915302e-06 4.265742e-25 1.36447059e-43)
(-4.76462919e-07 1.02714947e-07 1.96458358e-26 4.76462919e-07 -2.27614831e-27 -4.96167096e-44)
(-1.06486689e-09 -7.85473525e-11 -1.47662684e-22 1.06486689e-09 -8.142402e-25 -2.32225999e-35)
(-7.79864503e-08 9.78762333e-08 1.8628305e-21 7.79864503e-08 -8.84671006e-22 -3.39847756e-35)
(-6.00406839e-08 1.22069316e-07 -6.73561391e-24 6.00406839e-08 3.07086369e-24 -3.89917506e-40)
(-2.57113713e-08 8.020236e-08 -3.13711175e-24 2.57113713e-08 2.27549283e-24 -1.78704969e-40)
(-1.57940444e-08 7.03845727e-08 -3.61042588e-23 1.57940444e-08 2.81448415e-23 -7.24810227e-38)
(-1.10644054e-08 6.24010865e-08 4.89416681e-22 1.10644054e-08 -2.50297306e-22 -4.35629016e-36)
(-9.41020165e-09 5.63495217e-08 5.72460389e-22 9.41020165e-09 -3.39915185e-22 -7.37938592e-36)
(-9.44539993e-09 5.12294164e-08 3.88748033e-23 9.44539993e-09 -3.22096108e-23 -1.2957972e-37)
(-1.05542042e-08 5.0989111e-08 1.18459091e-27 1.05542042e-08 -8.44401222e-28 -4.0433518e-47)
(-1.2262631e-08 5.4339667e-08 -2.19633566e-25 1.2262631e-08 1.7494636e-25 -4.18912187e-42)
(-1.51093597e-08 6.29871967e-08 -1.54867479e-23 1.51093597e-08 1.21908852e-23 -6.00040471e-39)
(-1.97306337e-08 7.88661694e-08 1.5479654e-23 1.97306337e-08 -1.13714126e-23 -4.53273753e-39)
(-2.67005124e-08 1.03766099e-07 -6.52649393e-26 2.67005124e-08 5.09959824e-26 -1.37790465e-43)
(-3.62081055e-08 1.35868622e-07 7.34885119e-24 3.62081055e-08 -4.44012403e-24 -5.40443595e-40)
(-5.00207836e-08 1.72262037e-07 7.01354491e-24 5.00207836e-08 -6.7716597e-24 -5.13734347e-40)
(-7.01998318e-08 2.10674034e-07 -2.08115978e-23 7.01998318e-08 1.49619646e-23 -3.06374383e-39)
(-9.77633873e-08 2.44883567e-07 -2.1121643e-23 9.77633873e-08 1.42891012e-23 -2.52969536e-39)
(-1.32510771e-07 2.67276577e-07 -1.38371033e-23 1.32510771e-07 6.18455656e-24 -7.42212866e-40)
(-1.74980392e-07 2.75403801e-07 1.51313479e-23 1.74980392e-07 -5.78305423e-24 -8.04417841e-40)
(-2.23259877e-07 2.70167748e-07 5.89431217e-23 2.23259877e-07 -2.77241046e-23 -1.21427196e-38)
(-2.70414974e-07 2.47948487e-07 4.85140975e-25 2.70414974e-07 -1.80919494e-25 -1.48992257e-41)
(-3.11695642e-07 2.09294367e-07 6.26031185e-23 3.11695642e-07 -1.90942998e-23 -1.14096833e-38)
(-3.49209887e-07 1.59324805e-07 -9.09642486e-23 3.49209887e-07 1.8217836e-23 -4.4371944e-37)
(-3.7172283e-07 9.85529425e-08 1.97511826e-21 3.7172283e-07 -6.87946359e-23 -1.04557064e-35)
(-5.02835582e-07 4.98755369e-08 2.07898108e-21 5.02835582e-07 1.4874279e-22 -8.74913268e-36)
(-8.7965137e-07 2.51077052e-08 -4.35620888e-23 8.7965137e-07 1.19414827e-24 -4.65693785e-37)
(-1.34431576e-06 2.70849409e-08 1.76011833e-31 1.34431576e-06 -2.16707721e-33 -4.81259925e-54)
(-1.77882437e-06 2.65397032e-08 7.15413776e-23 1.77882437e-06 -6.42241901e-25 -6.4536283e-37)
(-2.20284153e-06 2.57504587e-08 5.33678061e-21 2.20284153e-06 1.2217062e-21 -1.29006062e-35)
(-2.592269e-06 2.43197473e-08 5.19718082e-21 2.592269e-06 1.46165992e-21 -1.01609083e-35)
(-2.9467167e-06 2.2639387e-08 -9.20532371e-23 2.9467167e-06 4.28679416e-25 -6.91820155e-37)
(-3.26081338e-06 2.07268034e-08 -5.17673128e-25 3.26081338e-06 1.95124033e-27 -8.2183626e-44)
(-3.53273511e-06 1.86167167e-08 -5.70590599e-25 3.53273511e-06 1.82600803e-27 -9.2159084e-44)
(-3.7599523e-06 1.63318408e-08 5.88605415e-25 3.7599523e-06 -1.59790355e-27 -9.2280059e-44)
(-3.94129342e-06 1.39234758e-08 -1.02360455e-22 3.94129342e-06 2.60771606e-25 -8.90779297e-37)
(-4.07644732e-06 1.14533736e-08 -8.00900545e-21 4.07644732e-06 -2.22342221e-21 -1.54756827e-35)
(-4.16612041e-06 8.9684822e-09 -7.62384945e-21 4.16612041e-06 -2.28895499e-21 -1.35594824e-35)
(-4.21164242e-06 6.51218963e-09 1.017423e-22 4.21164242e-06 -1.25242487e-25 -9.73157306e-37)
(-4.21512852e-06 4.12521379e-09 1.02712004e-25 4.21512852e-06 1.50307871e-26 -3.06346926e-45)
(-4.17932419e-06 1.84797325e-09 2.86438785e-25 4.17932419e-06 -1.52438557e-26 -1.95777701e-44)
(-4.10743997e-06 -2.85661289e-10 -6.77766571e-25 4.10743997e-06 1.50009607e-26 -1.11783365e-43)
(-4.00307433e-06 -2.24826637e-09 -1.24324646e-25 4.00307433e-06 -1.45570041e-26 -3.99618425e-45)
(-3.87009308e-06 -4.01964484e-09 9.29343989e-23 3.87009308e-06 -1.12317762e-26 -1.6568055e-36)
(-3.71250179e-06 -5.58657325e-09 1.02911162e-20 3.71250179e-06 2.12552969e-21 -2.9097908e-35)
(-3.53433974e-06 -6.94188028e-09 9.8265993e-21 3.53433974e-06 2.03325674e-21 -2.7845531e-35)
(-3.33959248e-06 -8.08356386e-09 -7.78897588e-23 3.33959248e-06 -2.82741668e-26 -1.78719061e-36)
(-3.13212137e-06 -9.01380341e-09 1.48156251e-25 3.13212137e-06 -5.65540815e-27 -7.0522207e-45)
(-2.91561814e-06 -9.73751945e-09 -3.63812271e-25 2.91561814e-06 4.74103414e-27 -4.5462753e-44)
(-2.69357754e-06 -1.02617618e-08 5.48573501e-23 2.69357754e-06 4.43284234e-26 -2.18637893e-36)
(-2.46927572e-06 -1.05953541e-08 9.84740105e-21 2.46927572e-06 1.37794957e-21 -4.08231255e-35)
(-2.24575561e-06 -1.0748456e-08 9.41897022e-21 2.24575561e-06 1.25923771e-21 -4.10808118e-35)
(-2.0258169e-06 -1.07325626e-08 -3.91332421e-23 2.0258169e-06 -5.39865946e-26 -2.31905679e-36)
(-1.81200091e-06 -1.05608982e-08 -2.26064806e-27 1.81200091e-06 -6.29833265e-30 -2.41395281e-47)
(-1.60656225e-06 -1.02493703e-08 -1.96644453e-27 1.60656225e-06 -6.28410677e-30 -8.85021222e-48)
(-1.41142491e-06 -9.81737293e-09 5.56344252e-26 1.41142491e-06 8.38823466e-28 -2.2087402e-45)
(-1.228121e-06 -9.28851713e-09 2.29847916e-26 1.228121e-06 -7.94921823e-28 -4.31138783e-46)
(-1.05773697e-06 -8.68856341e-09 5.91293279e-27 1.05773697e-06 2.85847013e-28 -4.74852905e-47)
(-9.00925461e-07 -8.04156903e-09 -1.90090202e-26 9.00925461e-07 -8.73639983e-29 -4.16653408e-46)
(-7.5796707e-07 -7.3665006e-09 4.23416312e-26 7.5796707e-07 -1.37697279e-28 -2.37121859e-45)
(-6.28920473e-07 -6.67442915e-09 4.35071075e-26 6.28920473e-07 5.62104303e-28 -3.01575747e-45)
(-5.13700616e-07 -5.97499623e-09 -6.00022797e-26 5.13700616e-07 -3.68352407e-28 -7.0135019e-45)
(-4.12090599e-07 -5.27816784e-09 -2.51354972e-29 4.12090599e-07 -3.7510056e-31 -3.42416849e-47)
(-3.23673267e-07 -4.59761912e-09 -3.4662322e-26 3.23673267e-07 4.64497135e-29 -3.74085014e-45)
(-2.47840311e-07 -3.94284006e-09 3.04022237e-26 2.47840311e-07 -1.01949675e-29 -3.76809313e-45)
(-1.83870571e-07 -3.32060936e-09 -2.38722223e-29 1.83870571e-07 -4.74935083e-31 -3.42988859e-47)
(-1.30977033e-07 -2.73377778e-09 0 1.30977033e-07 0 0)
(-8.83643784e-08 -2.1838489e-09 0 8.83643784e-08 0 0)
(-5.52300147e-08 -1.67321704e-09 0 5.52300147e-08 0 0)
(-3.07341364e-08 -1.205383e-09 4.96935893e-24 3.07341364e-08 2.59203609e-25 -4.54734928e-36)
(-1.39885349e-08 -7.83164708e-10 -1.20996407e-21 1.39885349e-08 -4.54183363e-23 -1.21015157e-34)
(-4.08844397e-09 -4.06951375e-10 -1.35889481e-21 4.08844397e-09 -8.11900745e-23 -4.51726344e-34)
(-1.51533268e-10 -7.51688674e-11 -1.25448518e-22 1.51533268e-10 -3.88766443e-23 -1.41816093e-34)
(-1.34194819e-09 2.1431009e-10 8.4286827e-24 1.34194819e-09 -2.88991202e-25 -4.69306558e-36)
(-6.86652877e-09 4.62797617e-10 -2.26964641e-26 6.86652877e-09 8.9569916e-28 -7.52872785e-44)
(-1.59503787e-08 6.70041843e-10 -1.61031157e-26 1.59503787e-08 4.25611385e-28 -1.62563324e-44)
(-2.78125017e-08 8.34544246e-10 -2.3137401e-23 2.78125017e-08 3.35307303e-25 -5.24305041e-36)
(-4.1637906e-08 9.53043908e-10 2.15331583e-21 4.1637906e-08 -5.27993578e-23 -1.17017618e-34)
(-5.65494451e-08 1.02038727e-09 2.72844832e-21 5.65494451e-08 -6.13335276e-23 -1.36514775e-34)
(-7.15575987e-08 1.02910731e-09 3.57662958e-23 7.15575987e-08 -2.96170644e-25 -5.22712431e-36)
(-8.55584286e-08 9.70660894e-10 -8.50984776e-26 8.55584286e-08 4.05813789e-28 -8.55313063e-44)
(-9.72545482e-08 8.35139569e-10 -8.53274039e-26 9.72545482e-08 1.00085833e-27 -7.48625121e-44)
(-1.05289948e-07 6.17891562e-10 1.83801738e-25 1.05289948e-07 -1.0964286e-27 -3.2085769e-43)
(-1.08150501e-07 3.23363801e-10 4.82809943e-25 1.08150501e-07 -9.11189612e-28 -2.16295219e-42)
(-1.04859498e-07 -3.30480823e-11 -6.72739945e-25 1.04859498e-07 -1.0044822e-28 -4.31606218e-42)
(-9.41363631e-08 -4.3047696e-10 1.88738987e-25 9.41363631e-08 6.20878966e-28 -4.09629405e-43)
(-7.68335808e-08 -8.00876992e-10 1.66756113e-25 7.68335808e-08 8.78564889e-28 -3.91439676e-43)
(-5.29663867e-08 -1.05735834e-09 -4.91692556e-25 5.29663867e-08 -4.37031334e-27 -4.564507e-42)
(-2.85659931e-08 -1.06396331e-09 4.13558003e-25 2.85659931e-08 6.4895479e-27 -6.01393283e-42)
(-6.99405052e-09 -8.28123406e-10 -7.67837076e-26 6.99405052e-09 -4.08413218e-27 -8.53618417e-43)
(-1.82008256e-09 2.61634252e-10 4.10891599e-28 1.82008256e-09 2.13933452e-29 -3.78523181e-45)
(-8.63455301e-09 -2.0892528e-09 1.04005601e-25 8.63455301e-09 1.96495323e-26 -2.470018e-40)
(-5.37929084e-09 -2.52177063e-09 -1.2124914e-23 5.37929084e-09 -2.56148882e-24 -2.5847888e-38)
(-1.52433404e-09 -1.1467264e-09 9.64137315e-24 1.52433404e-09 2.93804005e-24 -5.31801532e-38)
(-2.49448233e-10 -1.50664321e-10 1.1325194e-23 2.49448233e-10 4.33791273e-24 -5.08650297e-37)
(-5.43091291e-09 -5.9996072e-09 2.34708613e-23 5.43091291e-09 1.09762584e-23 -8.65061974e-38)
(-1.73693159e-08 -2.55530049e-08 -3.8770874e-23 1.73693159e-08 -2.10707319e-23 -6.30455364e-38)
(-3.85083397e-08 -7.22847578e-08 5.59206106e-23 3.85083397e-08 3.40058935e-23 -5.23151346e-38)
(-7.23123632e-08 -1.66817849e-07 4.12789892e-23 7.23123632e-08 2.57464559e-23 -1.40637859e-38)
(-1.22602014e-07 -3.34693134e-07 -9.72718789e-23 1.22602014e-07 -7.09618063e-23 -4.09559921e-38)
(-1.91715442e-07 -5.95871004e-07 1.59753753e-22 1.91715442e-07 1.1610889e-22 -6.24148024e-38)
(-2.80623332e-07 -9.50455658e-07 -5.29461608e-24 2.80623332e-07 -3.93669054e-24 -1.50953723e-40)
(-3.76486845e-07 -1.33371837e-06 1.3702397e-22 3.76486845e-07 1.03103019e-22 -2.12809864e-38)
(-4.52263652e-07 -1.67045911e-06 -7.03037015e-23 4.52263652e-07 -3.86972379e-23 -3.55684046e-39)
(-5.01843265e-07 -1.96111672e-06 -6.98479318e-23 5.01843265e-07 -3.65107735e-23 -2.87697845e-39)
(-5.28962888e-07 -2.22738973e-06 -6.75643865e-23 5.28962888e-07 -3.3269737e-23 -2.2613747e-39)
(-5.40210796e-07 -2.50260923e-06 1.21928833e-22 5.40210796e-07 1.19950606e-22 -1.13311131e-38)
(-5.46185886e-07 -2.84680796e-06 7.03571265e-23 5.46185886e-07 3.21852756e-23 -1.86001076e-39)
(-6.02935938e-07 -3.44152085e-06 2.00011245e-22 6.02935938e-07 1.3544265e-22 -1.63888e-38)
(-8.29948275e-07 -4.43165682e-06 9.61562706e-23 8.29948275e-07 7.8921455e-23 -3.43241779e-39)
(-1.37333475e-06 -5.84998282e-06 -8.47991468e-23 1.37333475e-06 -6.63791799e-23 -1.94507959e-39)
(-2.62827279e-06 -7.99754479e-06 2.65589756e-23 2.62827279e-06 1.89617849e-23 -1.35143856e-40)
(-5.42664732e-06 -1.08848787e-05 1.38543519e-22 5.42664732e-06 8.4596886e-23 -2.1685586e-39)
(-1.07666159e-05 -1.29309255e-05 -1.14464758e-23 1.07666159e-05 -5.28590946e-24 -9.89315425e-42)
(-1.37710302e-05 -8.56947778e-06 3.8073237e-24 1.37710302e-05 -5.59779503e-23 1.77152834e-40)
(-8.66162114e-06 -2.41859436e-06 1.90308947e-25 8.66162114e-06 2.97575591e-26 -1.82842553e-43)
(-2.90952909e-06 -2.39514574e-07 -1.54391012e-24 2.90952909e-06 -6.47402399e-26 -8.1813057e-43)
(-9.78174079e-07 -1.62094922e-08 -5.98271857e-28 9.78174079e-07 -2.82574897e-29 -1.88327143e-45)
(-4.25042366e-05 -7.97570391e-08 -1.94062696e-27 4.25042366e-05 -3.35442627e-30 -1.01941972e-49)
(-4.26931963e-05 1.50062884e-06 -1.94841562e-23 4.26931963e-05 1.84543042e-23 -1.50620948e-42)
(-2.3665422e-05 3.82858838e-06 -6.92964991e-22 2.3665422e-05 7.17876604e-23 -2.18821148e-36)
(-1.65360613e-06 3.27993237e-07 3.33919818e-20 1.65360613e-06 -7.89736419e-21 -6.80255237e-34)
(-1.08181701e-06 1.75522186e-06 -4.73785249e-20 1.08181701e-06 1.42442912e-20 -1.07723907e-33)
(-1.54414613e-06 3.20314595e-06 -1.29834613e-21 1.54414613e-06 8.71453827e-22 -2.82841119e-36)
(-7.63980175e-07 2.31637785e-06 9.90689959e-23 7.63980175e-07 -7.21461308e-23 -6.15759307e-39)
(-4.6786461e-07 2.05954503e-06 1.58670107e-21 4.6786461e-07 -1.26341995e-21 -5.6618466e-36)
(-3.35803521e-07 1.85658645e-06 2.91657258e-20 3.35803521e-07 -2.94485641e-20 -9.00360113e-34)
(-2.93983596e-07 1.70566856e-06 2.85503329e-20 2.93983596e-07 -2.86099276e-20 -9.33150759e-34)
(-3.01893701e-07 1.58911177e-06 -1.94840996e-21 3.01893701e-07 1.61579338e-21 -1.06711691e-35)
(-3.37846303e-07 1.61100759e-06 -3.80111794e-26 3.37846303e-07 2.02954223e-26 -1.0466556e-45)
(-3.92905969e-07 1.74717784e-06 -1.13134092e-23 3.92905969e-07 9.06346227e-24 -3.47983872e-40)
(-4.80831299e-07 2.04970249e-06 5.35882554e-22 4.80831299e-07 -3.88912225e-22 -2.08543399e-37)
(-6.19636491e-07 2.57508458e-06 2.55002711e-22 6.19636491e-07 -2.69513182e-22 -5.00580777e-38)
(-8.24438311e-07 3.36137219e-06 -1.77317325e-23 8.24438311e-07 1.39513836e-23 -4.53215477e-40)
(-1.10642388e-06 4.3474694e-06 3.55708862e-22 1.10642388e-06 -3.15866393e-22 -5.07434822e-38)
(-1.52396403e-06 5.44998953e-06 -9.80174362e-22 1.52396403e-06 7.93983747e-22 -2.81106804e-37)
(-2.14015842e-06 6.59571342e-06 6.23609095e-22 2.14015842e-06 -4.54159855e-22 -8.66128872e-38)
(-2.99813168e-06 7.61633862e-06 6.74739253e-22 2.99813168e-06 -4.60971343e-22 -8.31021726e-38)
(-4.11753288e-06 8.33367739e-06 -8.41651359e-22 4.11753288e-06 6.00358212e-22 -1.15930812e-37)
(-5.53434957e-06 8.68828015e-06 -3.70125331e-22 5.53434957e-06 1.25561586e-22 -2.40042249e-38)
(-7.19921638e-06 8.66063979e-06 -1.93929895e-21 7.19921638e-06 7.39976301e-22 -3.81170515e-37)
(-8.94880576e-06 8.13352517e-06 -2.21946634e-23 8.94880576e-06 7.75542727e-24 -8.55463897e-40)
(-1.06723401e-05 7.0969782e-06 -8.61940428e-22 1.06723401e-05 1.69253632e-22 -6.03696652e-38)
(-1.23962194e-05 5.62515012e-06 5.41570143e-21 1.23962194e-05 -8.18325425e-22 -3.51044823e-35)
(-1.43966982e-05 3.99412898e-06 1.60699443e-19 1.43966982e-05 -2.8250015e-20 -1.80679152e-33)
(-1.96823406e-05 2.65587507e-06 1.88414278e-19 1.96823406e-05 -2.17759428e-20 -1.85601361e-33)
(-3.05304222e-05 2.07783369e-06 1.51692638e-21 3.05304222e-05 -1.49023012e-22 -3.45888577e-35)
(-4.27313209e-05 2.10821234e-06 -1.3238426e-29 4.27313209e-05 5.48429505e-31 -1.45352276e-51)
(-5.36441138e-05 1.93371302e-06 -2.80451286e-21 5.36441138e-05 7.78982849e-23 -4.86206723e-35)
(-6.36401358e-05 1.76354713e-06 3.9348139e-19 6.36401358e-05 -4.40989703e-20 -2.45477297e-33)
(-7.23791751e-05 1.56196004e-06 4.40958923e-19 7.23791751e-05 -4.85412878e-20 -2.72223893e-33)
(-7.99221595e-05 1.35919489e-06 3.70867426e-21 7.99221595e-05 -4.50204412e-23 -4.8802862e-35)
(-8.62365434e-05 1.15293733e-06 -2.64146687e-25 8.62365434e-05 1.82588997e-24 -2.21179266e-43)
(-9.13422429e-05 9.46016076e-07 -7.74875675e-25 9.13422429e-05 2.03265778e-24 -8.06693399e-44)
(-9.52468734e-05 7.39539208e-07 5.0486884e-25 9.52468734e-05 -2.0728461e-24 1.09069703e-44)
(-9.79810392e-05 5.36962933e-07 4.18686429e-21 9.79810392e-05 -1.64195614e-23 -6.45614972e-35)
(-9.95886505e-05 3.41613938e-07 -5.78929359e-19 9.95886505e-05 6.40888137e-20 -3.39204238e-33)
(-0.000100128224 1.55890877e-07 -6.15050574e-19 0.000100128224 6.34422827e-20 -3.80461642e-33)
(-9.96668312e-05 -1.80773059e-08 -4.11979073e-21 9.96668312e-05 3.37426386e-24 -6.76066286e-35)
(-9.82900323e-05 -1.78027539e-07 -1.68486884e-24 9.82900323e-05 -1.12331594e-24 -1.61268578e-44)
(-9.60681165e-05 -3.22275891e-07 -7.31619067e-24 9.60681165e-05 -6.60276088e-27 -6.06016641e-43)
(-9.31075263e-05 -4.49860217e-07 7.49595818e-24 9.31075263e-05 1.10421655e-24 -6.06093104e-43)
(-8.95111538e-05 -5.60156234e-07 2.21567647e-24 8.95111538e-05 1.0418092e-24 -1.70101419e-43)
(-8.53772915e-05 -6.52955756e-07 -3.95496177e-21 8.53772915e-05 -1.16200955e-23 -1.20075391e-34)
(-8.08032825e-05 -7.28453155e-07 7.15626588e-19 8.08032825e-05 -5.3187437e-20 -6.42811118e-33)
(-7.58839095e-05 -7.87164541e-07 7.27792167e-19 7.58839095e-05 -4.91009677e-20 -7.04906944e-33)
(-7.07101258e-05 -8.29855022e-07 3.43279738e-21 7.07101258e-05 1.25999378e-23 -1.26869305e-34)
(-6.53681238e-05 -8.57461918e-07 -3.80481657e-24 6.53681238e-05 -2.55146599e-26 -2.64961855e-43)
(-5.9938787e-05 -8.71012998e-07 3.69756982e-24 5.9938787e-05 3.83043761e-25 -2.32128613e-43)
(-5.44973724e-05 -8.71589543e-07 -2.66170698e-21 5.44973724e-05 -1.2517163e-23 -1.61694588e-34)
(-4.9113257e-05 -8.60308085e-07 6.44495842e-19 4.9113257e-05 -2.90122713e-20 -8.61611779e-33)
(-4.38497558e-05 -8.38301284e-07 6.32047171e-19 4.38497558e-05 -2.50965555e-20 -9.21818323e-33)
(-3.87639524e-05 -8.06727298e-07 2.09409115e-21 3.87639524e-05 1.0880233e-23 -1.70352727e-34)
(-3.39063713e-05 -7.66802744e-07 -5.84625984e-26 3.39063713e-05 -6.99084433e-27 -1.68259765e-45)
(-2.93204017e-05 -7.19859042e-07 -5.31802938e-26 2.93204017e-05 -6.61018681e-27 -2.02799128e-45)
(-2.5041461e-05 -6.67386857e-07 2.83790976e-24 2.5041461e-05 -4.71300567e-26 -3.21021138e-43)
(-2.10960157e-05 -6.11041947e-07 -1.0621507e-24 2.10960157e-05 1.75804415e-27 -5.4673646e-44)
(-1.75010442e-05 -5.52498195e-07 3.39318885e-25 1.75010442e-05 -1.00396196e-26 -6.55495459e-45)
(-1.42647074e-05 -4.93227459e-07 -1.59194302e-26 1.42647074e-05 1.13694005e-26 -8.01060147e-48)
(-1.13880262e-05 -4.34311396e-07 -5.39406312e-25 1.13880262e-05 -2.01724264e-26 -2.88942886e-44)
(-8.86753536e-06 -3.76408896e-07 1.91708978e-24 8.86753536e-06 8.49119851e-27 -4.16066709e-43)
(-6.69645795e-06 -3.20081484e-07 -2.43459316e-26 6.69645795e-06 2.56596084e-26 -2.42714144e-45)
(-4.86468798e-06 -2.65940923e-07 -1.0497881e-24 4.86468798e-06 -2.7078576e-26 -2.27629467e-43)
(-3.35791633e-06 -2.14683615e-07 6.39015369e-25 3.35791633e-06 1.92554437e-26 -1.21605365e-43)
(-2.15828926e-06 -1.66773291e-07 -1.98879098e-24 2.15828926e-06 -7.21384452e-26 -1.83260401e-42)
(-1.24579156e-06 -1.22481127e-07 1.12808959e-24 1.24579156e-06 5.18487565e-26 -1.02150805e-42)
(-5.9916117e-07 -8.19052888e-08 -8.0785176e-25 5.9916117e-07 -5.14070485e-26 -1.08923021e-42)
(-1.96589504e-07 -4.50974301e-08 -5.77202889e-27 1.96589504e-07 -6.13608391e-28 -1.6947148e-46)
(-1.55915083e-08 -1.21692261e-08 -1.47827886e-25 1.55915083e-08 -4.88979868e-26 -1.23566614e-42)
(-3.26779074e-08 1.6763293e-08 1.06690832e-21 3.26779074e-08 -2.18081432e-23 -3.676514e-34)
(-2.2373365e-07 4.16893629e-08 6.57563445e-20 2.2373365e-07 -5.61237754e-21 -1.97736696e-32)
(-5.64884169e-07 6.27413162e-08 2.02957984e-19 5.64884169e-07 -1.05468505e-20 -7.29145512e-32)
(-1.0332159e-06 8.01342804e-08 1.35149951e-19 1.0332159e-06 -4.83874437e-21 -1.96406793e-32)
(-1.60686657e-06 9.40399818e-08 -1.76674662e-21 1.60686657e-06 2.20070201e-23 -3.91375636e-34)
(-2.26453342e-06 1.04508279e-07 5.72789801e-24 2.26453342e-06 -1.14549667e-25 -1.51433171e-41)
(-2.98459763e-06 1.11446755e-07 1.04379038e-24 2.98459763e-06 -3.05702816e-26 -4.32587005e-43)
(-3.74460904e-06 1.14656862e-07 2.57879545e-21 3.74460904e-06 -2.15123897e-23 -4.15475225e-34)
(-4.52036821e-06 1.13763072e-07 3.07849678e-19 4.52036821e-06 -1.96408506e-21 -2.13055441e-32)
(-5.28502349e-06 1.08182296e-07 3.26546375e-19 5.28502349e-06 -1.0866969e-21 -2.06562159e-32)
(-6.007292e-06 9.71226145e-08 -3.20281222e-21 6.007292e-06 1.19262629e-23 -4.30239878e-34)
(-6.65131115e-06 7.96053795e-08 -8.12566533e-24 6.65131115e-06 3.70619025e-26 -9.98211091e-42)
(-7.17370329e-06 5.45760525e-08 -9.48765767e-24 7.17370329e-06 -8.13989439e-26 -1.28212034e-41)
(-7.52724657e-06 2.12069614e-08 1.86144012e-23 7.52724657e-06 1.05516589e-25 -4.70389215e-41)
(-7.65612451e-06 -2.03005126e-08 -9.14659371e-24 7.65612451e-06 8.69972546e-26 -1.19727837e-41)
(-7.5120249e-06 -6.94098406e-08 3.18937688e-23 7.5120249e-06 7.46941833e-26 -1.35630787e-40)
(-7.03942248e-06 -1.23497008e-07 -2.23078018e-23 7.03942248e-06 -2.2269795e-25 -7.08932448e-41)
(-6.23905075e-06 -1.78939317e-07 -2.15223456e-23 6.23905075e-06 -3.3436541e-25 -7.46492187e-41)
(-5.07166745e-06 -2.24709148e-07 2.70360214e-23 5.07166745e-06 5.82450315e-25 -1.45794693e-40)
(-3.69253159e-06 -2.52690809e-07 -6.05856814e-24 3.69253159e-06 -1.31370166e-25 -9.9313052e-42)
(-2.1090734e-06 -2.69345728e-07 -3.01712114e-25 2.1090734e-06 -5.25095248e-26 -1.22514691e-42)
(-6.77856127e-07 -1.83929537e-07 -1.42169815e-22 6.77856127e-07 -1.97200325e-23 -2.95578662e-38)
(-3.21394524e-07 -9.84232158e-08 -7.96127818e-22 3.21394524e-07 -1.14643859e-22 -1.92586013e-36)
(-3.98520465e-07 -1.4884929e-07 -5.83502263e-22 3.98520465e-07 -1.03718458e-22 -8.36732129e-37)
(-5.97149662e-07 -3.11733245e-07 9.73634279e-22 5.97149662e-07 2.30444186e-22 -1.5250458e-36)
(-9.70896694e-07 -7.06687811e-07 -1.66020317e-21 9.70896694e-07 -5.18665538e-22 -2.55694145e-36)
(-1.4532368e-06 -1.42873504e-06 -1.96012451e-21 1.4532368e-06 -7.91278414e-22 -2.21446003e-36)
(-2.04270378e-06 -2.61537074e-06 2.34118014e-21 2.04270378e-06 1.12943603e-21 -2.04004488e-36)
(-2.85512246e-06 -4.62725138e-06 -2.82254308e-21 2.85512246e-06 -1.56130369e-21 -1.96017118e-36)
(-3.98437591e-06 -7.93166552e-06 3.19530308e-21 3.98437591e-06 2.02289914e-21 -1.61379529e-36)
(-5.48702439e-06 -1.30334299e-05 3.51906872e-21 5.48702439e-06 2.21963181e-21 -1.22552582e-36)
(-7.35036144e-06 -2.02302695e-05 -5.47987999e-21 7.35036144e-06 -3.49456641e-21 -1.95656226e-36)
(-9.53571911e-06 -2.94015051e-05 6.28712677e-21 9.53571911e-06 4.590459e-21 -1.97840459e-36)
(-1.17776432e-05 -3.9167335e-05 -4.15085808e-21 1.17776432e-05 -3.1051008e-21 -6.61196483e-37)
(-1.35232741e-05 -4.79192698e-05 -4.18102921e-21 1.35232741e-05 -3.63554853e-21 -6.14193832e-37)
(-1.45991995e-05 -5.54544648e-05 -4.28495924e-21 1.45991995e-05 -3.8504805e-21 -5.72567085e-37)
(-1.50898283e-05 -6.22296351e-05 -4.18644812e-21 1.50898283e-05 -3.91017605e-21 -5.09887729e-37)
(-1.5161945e-05 -6.89952374e-05 -9.64317797e-21 1.5161945e-05 -7.1897488e-21 -2.05411651e-36)
(-1.50998274e-05 -7.70514699e-05 2.75179677e-21 1.50998274e-05 3.0391856e-21 -2.08589758e-37)
(-1.61431345e-05 -9.01421917e-05 -2.0226971e-21 1.61431345e-05 9.18585568e-22 3.24343514e-38)
(-2.11190586e-05 -0.00011154579 -2.38188884e-21 2.11190586e-05 -1.99377689e-21 -8.76632611e-38)
(-3.34625359e-05 -0.000142077237 2.4194004e-21 3.34625359e-05 1.93811444e-21 -6.59103687e-38)
(-6.10392993e-05 -0.000185939337 -2.41854583e-21 6.10392993e-05 1.81726487e-21 3.8575212e-38)
(-0.000119617519 -0.000241548161 -5.547399e-21 0.000119617519 1.26571045e-21 -1.50577081e-39)
(-0.00022945326 -0.000281407066 2.98661321e-21 0.00022945326 -4.56327384e-21 7.88448342e-38)
(-0.000323116534 -0.000211096676 -2.19066678e-22 0.000323116534 1.46850255e-21 5.48709596e-39)
(-0.00026802943 -8.44459633e-05 -8.64433667e-24 0.00026802943 -1.79381563e-24 -9.95624866e-42)
(-0.00013176001 -1.60011227e-05 1.36655152e-22 0.00013176001 8.15227576e-24 -1.4138388e-40)
(-5.81562089e-05 -2.46828483e-06 -1.8142323e-26 5.81562089e-05 -3.51213606e-28 -5.65962218e-48)
(-0.000486389739 -5.92496447e-06 -1.966243e-26 0.000486389739 1.17332046e-26 -7.23970446e-44)
(-0.000432471449 1.06468833e-05 -7.29944213e-24 0.000432471449 -3.03988215e-22 2.13684031e-40)
(-0.000270725402 3.46745084e-05 5.24135328e-21 0.000270725402 -5.7179066e-22 -1.90641418e-35)
(-4.93746557e-05 1.15181821e-05 6.07174287e-19 4.93746557e-05 7.2380649e-21 -7.41249384e-33)
(-1.34236613e-06 5.20558191e-06 -1.48775946e-19 1.34236613e-06 1.84605859e-19 -1.007883e-32)
(-9.80987983e-06 2.04909116e-05 1.15174751e-20 9.80987983e-06 -8.09849815e-21 -2.94017625e-35)
(-6.00256281e-06 1.68868545e-05 -3.87383778e-23 6.00256281e-06 2.81066545e-23 -3.7983661e-40)
(-3.79331903e-06 1.53249561e-05 1.16452916e-21 3.79331903e-06 -9.1203467e-22 -1.38849433e-37)
(-2.82887448e-06 1.41162419e-05 -3.55600296e-19 2.82887448e-06 2.9232262e-19 -1.47212305e-32)
(-2.54268228e-06 1.32541239e-05 -3.87626968e-19 2.54268228e-06 3.2022309e-19 -1.87351758e-32)
(-2.62327186e-06 1.27032814e-05 1.53827083e-21 2.62327186e-06 -1.25453412e-21 -3.04324144e-37)
(-2.9021496e-06 1.31590285e-05 -1.74708052e-24 2.9021496e-06 1.55583901e-24 -4.04072595e-43)
(-3.33993984e-06 1.45497882e-05 1.0225709e-22 3.33993984e-06 -8.12392694e-23 -3.39046033e-39)
(-4.02676155e-06 1.72832799e-05 -1.11978449e-22 4.02676155e-06 -2.19017052e-22 3.13761854e-39)
(-5.09599328e-06 2.1762744e-05 -9.83999826e-21 5.09599328e-06 7.61117538e-21 -6.92207904e-36)
(-6.66094804e-06 2.81269723e-05 8.14495337e-24 6.66094804e-06 -5.79843396e-24 -3.44269362e-42)
(-8.85310027e-06 3.58442901e-05 -9.78759158e-21 8.85310027e-06 7.66571947e-21 -4.18727411e-36)
(-1.21499791e-05 4.43049174e-05 -2.84252263e-23 1.21499791e-05 2.17569521e-23 -3.48656146e-41)
(-1.70365051e-05 5.2932367e-05 7.37066347e-21 1.70365051e-05 -5.37374517e-21 -1.49645936e-36)
(-2.39162223e-05 6.06434524e-05 -8.97377153e-21 2.39162223e-05 6.11149241e-21 -1.80825747e-36)
(-3.31126343e-05 6.65121826e-05 1.04578974e-20 3.31126343e-05 -6.49280651e-21 -2.05827603e-36)
(-4.50785678e-05 7.0187204e-05 -3.87660254e-22 4.50785678e-05 2.15938491e-21 -1.41633104e-38)
(-5.96050428e-05 7.12089623e-05 -1.55958999e-20 5.96050428e-05 8.71631361e-21 -3.42562922e-36)
(-7.58889501e-05 6.86316058e-05 -1.8015564e-20 7.58889501e-05 6.97133605e-21 -3.68018873e-36)
(-9.33994684e-05 6.20835509e-05 -2.11928266e-20 9.33994684e-05 6.05349622e-21 -4.37614943e-36)
(-0.00011246378 5.18114539e-05 1.00010145e-21 0.00011246378 -2.23268564e-21 9.67562987e-41)
(-0.000138486641 4.12684665e-05 -2.05092498e-18 0.000138486641 2.95898409e-19 -2.97128598e-32)
(-0.000183675837 3.09816272e-05 -2.28491662e-18 0.000183675837 1.92640369e-19 -2.82837701e-32)
(-0.000250916776 2.62895583e-05 2.0857567e-25 0.000250916776 -5.63763946e-26 -2.09766004e-43)
(-0.000318902532 2.51846989e-05 -7.18714508e-23 0.000318902532 2.80234623e-24 -1.61977059e-41)
(-0.000374886971 2.21193744e-05 7.63442787e-23 0.000374886971 -2.23317113e-24 -1.55472074e-41)
(-0.000420857793 1.93836538e-05 -4.01983335e-18 0.000420857793 9.13540934e-20 -3.83955221e-32)
(-0.000457303095 1.65921524e-05 -4.19627863e-18 0.000457303095 7.50205672e-20 -3.85056444e-32)
(-0.000485389511 1.39791309e-05 -2.95715641e-22 0.000485389511 4.18232361e-24 -1.80159901e-40)
(-0.000505851243 1.14776348e-05 1.96719365e-22 0.000505851243 -2.18454453e-24 -7.65017472e-41)
(-0.000519396836 9.08817742e-06 1.70202063e-23 0.000519396836 -1.45015875e-25 -5.57738081e-43)
(-0.000526606828 6.80275941e-06 -1.79600587e-23 0.000526606828 1.12138236e-25 -6.1253228e-43)
(-0.000528044948 4.63800709e-06 -3.19568479e-25 0.000528044948 3.14198086e-27 -7.38895649e-44)
(-0.000524240835 2.6090983e-06 5.18094927e-18 0.000524240835 -1.19283629e-20 -5.12021047e-32)
(-0.000515702432 7.24994285e-07 5.26861683e-18 0.000515702432 -2.77362057e-21 -5.38262376e-32)
(-0.00050291177 -1.00180049e-06 2.24852922e-24 0.00050291177 -1.09391329e-23 2.27743061e-43)
(-0.000486376082 -2.55534764e-06 -1.48033298e-23 0.000486376082 1.07495748e-23 -2.96014498e-43)
(-0.000466350235 -3.92681325e-06 -5.60373495e-23 0.000466350235 -2.4133539e-25 -6.8130347e-42)
(-0.000443626 -5.11572038e-06 1.14133491e-23 0.000443626 6.8560658e-26 -4.08107811e-43)
(-0.000418696763 -6.12142855e-06 1.82187135e-22 0.000418696763 -8.22993775e-24 -7.89972091e-41)
(-0.000392026492 -6.94572375e-06 -1.91837137e-22 0.000392026492 -1.49614217e-24 -9.44614974e-41)
(-0.000364063349 -7.59308517e-06 -6.0205741e-18 0.000364063349 -6.2962557e-20 -9.95631958e-32)
(-0.000335237496 -8.07015918e-06 -5.95056584e-18 0.000335237496 -7.16543717e-20 -1.05624319e-31)
(-0.000305958991 -8.38530836e-06 -6.72532256e-23 0.000305958991 -9.20086548e-25 -1.47830147e-41)
(-0.000276615942 -8.54811748e-06 0 0.000276615942 0 0)
(-0.000247572944 -8.56889774e-06 7.43993009e-24 0.000247572944 1.28138014e-25 -2.23580808e-43)
(-0.000219169433 -8.45852096e-06 -5.58029939e-18 0.000219169433 -1.07032779e-19 -1.42080671e-31)
(-0.000191717796 -8.22837732e-06 -1.0562144e-17 0.000191717796 -2.25050481e-19 -5.81891139e-31)
(-0.000165501377 -7.89031924e-06 -4.92108163e-18 0.000165501377 -1.16358381e-19 -1.46325336e-31)
(-0.000140772194 -7.45682517e-06 -8.45134107e-24 0.000140772194 7.25775996e-25 -5.38492887e-43)
(-0.000117748044 -6.94131075e-06 2.0550668e-23 0.000117748044 5.45801034e-25 -3.61250167e-42)
(-9.66089573e-05 -6.35852723e-06 2.10326232e-25 9.66089573e-05 -4.23704694e-26 -1.71204139e-44)
(-7.74933723e-05 -5.72471579e-06 -1.08141889e-23 7.74933723e-05 -1.01089139e-24 -1.51041357e-42)
(-6.04950877e-05 -5.05720989e-06 2.63998765e-24 6.04950877e-05 1.07361059e-25 -1.27520182e-43)
(-4.56633312e-05 -4.3728541e-06 -2.26406851e-24 4.56633312e-05 -1.07082493e-25 -1.1225651e-43)
(-3.30074381e-05 -3.68609489e-06 2.00744729e-24 3.30074381e-05 1.10662372e-25 -1.22088984e-43)
(-2.250488e-05 -3.00776858e-06 -1.70807211e-24 2.250488e-05 -1.09631952e-25 -1.43845624e-43)
(-1.41102631e-05 -2.34564863e-06 -5.28011157e-24 1.41102631e-05 -5.82350846e-25 -1.9830842e-42)
(-7.75815287e-06 -1.70690837e-06 4.1637487e-24 7.75815287e-06 4.55621677e-25 -2.22617304e-42)
(-3.36273975e-06 -1.09890266e-06 -1.037759e-25 3.36273975e-06 4.85462009e-26 -1.43255504e-45)
(-8.174571e-07 -5.28356283e-07 4.68476032e-26 8.174571e-07 -6.68962602e-28 -2.79425157e-44)
(-1.33759561e-12 2.82948163e-10 -9.95052024e-26 1.33759561e-12 -7.38758209e-25 -7.08851847e-42)
(-7.77512161e-07 4.84416144e-07 -5.14042763e-19 7.77512161e-07 1.57890314e-19 -3.3985261e-31)