/*--------------------------------*- C++ -*----------------------------------*\
| =========                 |                                                 |
| \\      /  F ield         | OpenFOAM: The Open Source CFD Toolbox           |
|  \\    /   O peration     | Version:  2506                                  |
|   \\  /    A nd           | Website:  www.openfoam.com                      |
|    \\/     M anipulation  |                                                 |
\*---------------------------------------------------------------------------*/
FoamFile
{
    version     2.0;
    format      ascii;
    arch        "LSB;label=32;scalar=64";
    class       volScalarField;
    location    "2644";
    object      I1;
}
// * * * * * * * * * * * * * * * * * * * * * * * * * * * * * * * * * * * * * //

dimensions      [0 0 0 0 0 0 0];

internalField   nonuniform List<scalar> 
15600
(
1.4641012e-06
1.74834211e-06
8.34671245e-07
2.22899908e-09
2.14045173e-07
2.32524829e-07
1.44135207e-07
1.23656386e-07
1.08727277e-07
9.80846078e-08
8.94763465e-08
8.94442862e-08
9.56836184e-08
1.11252738e-07
1.39625321e-07
1.84026347e-07
2.41571222e-07
3.08340698e-07
3.81969006e-07
4.5391719e-07
5.14084148e-07
5.62901286e-07
6.05181024e-07
6.34020238e-07
6.49362955e-07
6.64331332e-07
6.66243128e-07
8.7293813e-07
1.51352918e-06
2.30944862e-06
3.05551497e-06
3.78380007e-06
4.45277518e-06
5.0617606e-06
5.60148604e-06
6.06879388e-06
6.45931094e-06
6.77100424e-06
7.00332323e-06
7.1574713e-06
7.23572687e-06
7.24172191e-06
7.1801745e-06
7.05660522e-06
6.87720354e-06
6.64861945e-06
6.37774359e-06
6.0715244e-06
5.73681725e-06
5.38026301e-06
5.00820966e-06
4.62666529e-06
4.24126074e-06
3.8572247e-06
3.4793665e-06
3.11205046e-06
2.75914726e-06
2.42395905e-06
2.10911432e-06
1.81647588e-06
1.54716136e-06
1.30164926e-06
1.08003712e-06
8.82175993e-07
7.07691042e-07
5.55864094e-07
4.25648907e-07
3.1580583e-07
2.24982309e-07
1.5181183e-07
9.4915693e-08
5.28516441e-08
2.40945307e-08
7.09084751e-09
3.25649188e-10
2.36378107e-09
1.1843393e-08
2.74339867e-08
4.77946404e-08
7.15260417e-08
9.71221852e-08
1.22884079e-07
1.46916456e-07
1.66991804e-07
1.80782534e-07
1.8568934e-07
1.80038162e-07
1.61629768e-07
1.31934218e-07
9.09746726e-08
4.91181045e-08
1.21580953e-08
3.28171676e-09
1.54165974e-08
1.03321841e-08
3.33360551e-09
5.22724735e-10
1.39690447e-08
5.32694961e-08
1.41031329e-07
3.1275528e-07
6.12674827e-07
1.0753551e-06
1.70201947e-06
2.38015775e-06
2.97284876e-06
3.47802931e-06
3.93394155e-06
4.39992004e-06
4.98118009e-06
6.00132408e-06
7.7399305e-06
1.03089709e-05
1.44314993e-05
2.08289136e-05
2.87952295e-05
2.77321919e-05
1.53690147e-05
4.99365555e-06
1.67804724e-06
7.32947054e-05
7.34590669e-05
4.11144441e-05
3.02554227e-06
3.55393405e-06
6.0399786e-06
4.14909649e-06
3.60836219e-06
3.2329539e-06
2.97296396e-06
2.78230273e-06
2.83170724e-06
3.07979382e-06
3.61969259e-06
4.55287918e-06
5.95042183e-06
7.72098933e-06
9.75844697e-06
1.19860098e-05
1.41896346e-05
1.61717346e-05
1.79874278e-05
1.97244258e-05
2.12336117e-05
2.25578556e-05
2.39973549e-05
2.63550906e-05
3.47848668e-05
5.31103653e-05
7.40847946e-05
9.30434421e-05
0.000110484129
0.000125783145
0.000139027458
0.000150141806
0.000159146764
0.00016604384
0.00017087835
0.000173722083
0.000174675332
0.000173855667
0.000171415188
0.00016748029
0.00016224233
0.000155886701
0.000148590606
0.000140529201
0.000131872486
0.000122782911
0.000113413637
0.000103907556
9.43967652e-05
8.5002203e-05
7.58334365e-05
6.69885002e-05
5.85534778e-05
5.06016644e-05
4.31922825e-05
3.63689456e-05
3.01588534e-05
2.45740598e-05
1.9614434e-05
1.52723139e-05
1.15345907e-05
8.38270164e-06
5.79111075e-06
3.72838504e-06
2.15957355e-06
1.04774215e-06
3.55160969e-07
4.30691044e-08
7.10899e-08
3.97843656e-07
9.82408689e-07
1.78552863e-06
2.76974556e-06
3.89854999e-06
5.13486868e-06
6.44018358e-06
7.77294557e-06
9.08701749e-06
1.03286088e-05
1.14360434e-05
1.23346859e-05
1.29433184e-05
1.31659711e-05
1.29200378e-05
1.21102334e-05
1.07391109e-05
8.73923672e-06
6.38302631e-06
3.68511042e-06
1.21847508e-06
5.66498935e-07
7.22691208e-07
1.16059338e-06
2.08450364e-06
3.54690888e-06
5.77727673e-06
9.45284776e-06
1.54015785e-05
2.44959436e-05
3.72420505e-05
5.34572113e-05
7.0781296e-05
8.62824439e-05
9.95116357e-05
0.000111263336
0.00012289619
0.000136720598
0.000159516735
0.000197927139
0.000255007872
0.000343266705
0.000475820262
0.000647654038
0.000690109195
0.000495789769
0.000230166427
0.000100478246
0.000905253689
0.000793410634
0.00048662975
8.99865024e-05
1.03315359e-05
3.85145736e-05
3.0353999e-05
2.69138647e-05
2.46765525e-05
2.32302681e-05
2.23770814e-05
2.32481346e-05
2.57427013e-05
3.05969922e-05
3.85523246e-05
4.99208643e-05
6.39553251e-05
7.99392977e-05
9.7293291e-05
0.000114802214
0.000131833389
0.000149145045
0.000167122555
0.000185187478
0.000204006669
0.000226052899
0.000264370287
0.000339110068
0.000457311085
0.000582605344
0.000689714376
0.000779658938
0.000852271049
0.000909044456
0.000950850705
0.000978713808
0.000993559216
0.000996419441
0.000988366512
0.00097050689
0.000943943115
0.000909859151
0.000868933246
0.000822934592
0.000772989608
0.000720132652
0.000665329629
0.000609472494
0.000553376525
0.000497779879
0.000443345009
0.000390660726
0.000340244151
0.000292542615
0.000247934983
0.000206731694
0.000169173299
0.000135428094
0.000105590381
7.96831784e-05
5.76680554e-05
3.94597726e-05
2.49423228e-05
1.39741499e-05
6.38725338e-06
1.98575294e-06
5.52760562e-07
1.85833418e-06
5.66435712e-06
1.17250551e-05
1.97843803e-05
2.95787103e-05
4.08451411e-05
5.33287036e-05
6.67859912e-05
8.09801634e-05
9.56723847e-05
0.000110610826
0.000125525968
0.000140118512
0.000154046366
0.000166901537
0.000178201812
0.000187355149
0.000193683514
0.000196349036
0.000194274066
0.00018667809
0.000173100777
0.000152575633
0.000126199965
9.25153309e-05
5.90956967e-05
4.78372215e-05
5.03508022e-05
5.82087899e-05
7.03219446e-05
8.64951733e-05
0.000108282486
0.000140563012
0.000187851933
0.000253360189
0.000337414178
0.000437652789
0.000543753495
0.000641923512
0.000726858865
0.000801559483
0.00087293066
0.000952520492
0.00107228401
0.00126947961
0.00156380685
0.00199618281
0.0026056279
0.00339281493
0.00387064987
0.00351324598
0.00227781184
0.00129976439
0.00501886372
0.00408398183
0.00263535831
0.000807835416
2.16421678e-05
0.000114350441
0.000109948949
0.00010038421
9.48135532e-05
9.19394709e-05
9.15053475e-05
9.72808405e-05
0.000109739263
0.000131797531
0.00016602249
0.000212569224
0.000268433617
0.000331279889
0.000399235795
0.000469788676
0.000544014479
0.000625806785
0.00071604572
0.000814995662
0.000926154643
0.00105987363
0.00126631443
0.00151431855
0.00179300597
0.00206678091
0.00227265854
0.00240869031
0.00248880657
0.00252161414
0.00251461905
0.00247407665
0.00240557917
0.00231420768
0.00220453583
0.00208067346
0.00194689816
0.00180315868
0.00165497043
0.00150562414
0.00135733648
0.00121197826
0.00107114134
0.000936169144
0.000808185111
0.000688117869
0.000576722847
0.000474599857
0.00038220711
0.00029987281
0.000227804187
0.000166094886
0.000114731146
7.3598692e-05
4.24918308e-05
2.11265662e-05
9.15748677e-06
6.19375335e-06
1.18084913e-05
2.55400592e-05
4.68897914e-05
7.53315261e-05
0.000110313526
0.000151264809
0.000197598182
0.000248697692
0.000303925532
0.000362627869
0.000424163814
0.000487905517
0.000553239095
0.00061954573
0.000686177476
0.000752433612
0.000817547621
0.000880655132
0.000940746165
0.000996607562
0.00104675592
0.00108936951
0.00112221989
0.00114239829
0.0011437573
0.00112441557
0.00108060757
0.00100763152
0.00090284234
0.000753816706
0.000614932078
0.00057349733
0.000578994302
0.000611993429
0.000653019812
0.000707505379
0.000781732462
0.00089005491
0.00104260897
0.00123967403
0.00147344967
0.00173616755
0.00201890905
0.00230048145
0.00255786628
0.00278891982
0.00300444344
0.003225174
0.00350600134
0.00393730603
0.0045773172
0.00544282877
0.00651390531
0.00780538968
0.00920697666
0.0101610128
0.00888214972
0.00671893401
0.0151678806
0.0123205753
0.00840321882
0.00364359144
0.000261097131
0.00019735113
0.000259291433
0.000247817681
0.000243435544
0.000245314596
0.000253547307
0.000276551902
0.000317829539
0.000384923407
0.000483064158
0.000609535372
0.000756593728
0.000919440151
0.00109502869
0.00128334838
0.0014951088
0.00174032023
0.00201903534
0.00233628931
0.00269817484
0.00311531421
0.0036290774
0.0039183088
0.00401927901
0.0040886472
0.00405787426
0.00391778836
0.00371809558
0.00347807141
0.00321440449
0.0029383007
0.00265874112
0.00238252073
0.00211483519
0.0018597702
0.0016181778
0.00139089926
0.00118140618
0.000990489384
0.000818228916
0.000664443288
0.000528776953
0.000410759448
0.000309848649
0.000225459288
0.000156981037
0.00010379005
6.525624e-05
4.07486166e-05
2.96405012e-05
3.13159901e-05
4.51774561e-05
7.06528128e-05
0.000107200297
0.000154306424
0.000211479816
0.000278243392
0.000354116714
0.000438614705
0.000531236546
0.000631477037
0.000738793698
0.000852612724
0.00097232326
0.00109728219
0.00122686974
0.00136042431
0.00149728855
0.00163677247
0.00177814322
0.00192062492
0.00206338606
0.00220554109
0.00234613239
0.00248411435
0.00261827392
0.00274721693
0.00286919337
0.00298217467
0.00308347636
0.00316940473
0.00322490622
0.00325068922
0.003236906
0.00317544564
0.00304615934
0.00281509293
0.0026484693
0.00264140346
0.00261458721
0.00263455691
0.00265050907
0.00269720393
0.00278929908
0.00294135778
0.00316320639
0.00343728489
0.00373853847
0.00406132823
0.00444754301
0.00490711575
0.00538750807
0.00585481806
0.00629716873
0.00670862054
0.0070862693
0.00754346884
0.00819105939
0.00890648875
0.00947951089
0.010014109
0.0121244092
0.0163184966
0.0184943291
0.0178573081
0.0282128846
0.0239449306
0.0177538213
0.0101034716
0.00171660401
0.000205379422
0.000442545126
0.000457067195
0.000474065966
0.000503042814
0.000543821337
0.000610456537
0.000714332747
0.000869467514
0.00108153818
0.00133815252
0.00162473748
0.00193413368
0.0022644214
0.00262709736
0.00305214936
0.00355029634
0.00411068641
0.00474119912
0.00543223812
0.00613440804
0.00671849961
0.00643528553
0.00559062748
0.00481564856
0.00413174861
0.00347762258
0.00289976453
0.00239269465
0.00195367328
0.0015764008
0.00125530871
0.000984778606
0.000759557624
0.000574649364
0.000423991613
0.000303952805
0.000211283779
0.000142724731
9.53988693e-05
6.68264175e-05
5.48800057e-05
5.77400778e-05
7.38519653e-05
0.000101884877
0.000140695501
0.000189299311
0.000246849283
0.000312620716
0.000386003098
0.000466495576
0.000553702855
0.000647324956
0.000747140066
0.000852979116
0.00096470718
0.00108221686
0.00120540658
0.00133418298
0.001468432
0.00160801932
0.00175272285
0.00190226053
0.00205630853
0.00221456472
0.00237679479
0.00254274962
0.00271213194
0.00288456017
0.003059544
0.00323652528
0.00341490596
0.00359411813
0.00377363449
0.00395301849
0.00413186061
0.00430992459
0.00448697013
0.0046632147
0.00483886105
0.00501406115
0.00517403166
0.00532731763
0.00546646268
0.00559476518
0.00568173764
0.00570816362
0.00591623737
0.00612513207
0.0060191724
0.00590851161
0.00577554465
0.00569859077
0.00569757885
0.00576224957
0.00588993425
0.00603545815
0.00615796744
0.00626867602
0.00650487542
0.00695316845
0.00754766882
0.00821042386
0.00887783199
0.00946061293
0.00977580035
0.00987937059
0.00993554131
0.00968034089
0.00878962783
0.00759270558
0.00944259512
0.0168765791
0.0251336725
0.0294693451
0.0374715168
0.0335452478
0.0274080435
0.0194517868
0.00610563099
0.000234661785
0.000547651855
0.000654160342
0.000735447745
0.000839120235
0.000959692366
0.0011137662
0.00132608413
0.00161499164
0.00197795058
0.00238228415
0.00280673066
0.00324320508
0.00369453953
0.00419219483
0.00478565972
0.00546781594
0.00619866919
0.0069792532
0.00775854288
0.00836891647
0.00846426279
0.00712087575
0.00507922884
0.00351734316
0.00246255139
0.00168506465
0.00113443075
0.000741534208
0.00046451648
0.000273192763
0.000146917568
7.06571854e-05
3.32458874e-05
2.60440775e-05
4.26394688e-05
7.82500749e-05
0.000129007545
0.000191835068
0.000264314184
0.000344538227
0.000431006556
0.000522536909
0.000618195758
0.000717244476
0.00081909776
0.0009232957
0.0010294887
0.00113742939
0.00124697091
0.00135806478
0.00147075378
0.00158515323
0.00170142789
0.00181976628
0.00194037655
0.0020634896
0.00218931961
0.0023180601
0.00244985163
0.00258479369
0.0027228623
0.00286398349
0.00300804973
0.00315503051
0.00330490357
0.00345769202
0.00361339495
0.0037719197
0.0039330253
0.00409636954
0.00426155955
0.00442828871
0.0045964141
0.00476605782
0.00493755762
0.00511175419
0.00528989799
0.00547446669
0.00566888966
0.0058780083
0.00609412677
0.00633453962
0.00660329792
0.00692652849
0.00729053067
0.00774036083
0.00853346501
0.00908204461
0.00899068032
0.00877023963
0.00849932482
0.00829253226
0.00818194282
0.00813250963
0.00811454368
0.00804529961
0.00786546908
0.00760603162
0.0074904037
0.00769102678
0.00815931504
0.00879778768
0.00950477262
0.0101075324
0.0102277373
0.00981979216
0.00910656735
0.00784716985
0.0058166942
0.00350541846
0.00406944192
0.0117256064
0.0250665313
0.0354455543
0.0402670873
0.0380417532
0.0340644367
0.0288882156
0.0140612475
0.00111960318
0.000434667249
0.000704829684
0.000904304881
0.00115036319
0.00141944887
0.00171708092
0.00208136797
0.00252453086
0.00302040522
0.00350732136
0.00396384571
0.00438891379
0.00479877516
0.0052523128
0.00581369977
0.0064484424
0.00708406072
0.0077128152
0.00824202866
0.00841484792
0.00782271022
0.00573029926
0.00325078712
0.00170004126
0.000874981311
0.000401476616
0.000151379875
3.47004069e-05
2.52098984e-06
2.57653293e-05
8.65047812e-05
0.000172976732
0.000277048969
0.000393368175
0.00051831789
0.000648835358
0.00078257634
0.000917823394
0.00105330171
0.00118807779
0.00132148342
0.00145304895
0.00158245153
0.00170947984
0.00183400706
0.00195597615
0.00207539945
0.00219236217
0.00230702806
0.00241963989
0.00253051008
0.00263999898
0.00274850078
0.00285643257
0.00296425505
0.00307246766
0.00318150215
0.00329169448
0.00340325191
0.00351633918
0.00363106289
0.00374751369
0.00386574431
0.00398581421
0.00410774747
0.00423165397
0.00435769965
0.0044859885
0.00461645129
0.00474886099
0.00488287674
0.00501823161
0.00515490032
0.00529322652
0.00543385363
0.00557808634
0.00572786946
0.00588682226
0.00606011847
0.00625540348
0.00646946492
0.00672497776
0.00703604716
0.0074456746
0.00796263082
0.00868777665
0.00990887929
0.0108255455
0.0109205267
0.0107436732
0.0104602951
0.0102185731
0.0100812377
0.0100081196
0.00992703501
0.00970133958
0.0092480583
0.00862051063
0.00810855752
0.00795921239
0.00814988435
0.00857987278
0.00913403029
0.00960445665
0.00951774146
0.0087605448
0.00762525742
0.00600486287
0.00379381135
0.00144198471
0.000685286922
0.00544315823
0.0194765665
0.0343525692
0.0375773975
0.0377569454
0.0367642065
0.0361726716
0.0238449012
0.00465476108
0.000173443168
0.00049766272
0.000824778148
0.00125616559
0.00173408003
0.00222134889
0.00275370465
0.00331677513
0.00384671896
0.00425996582
0.00455763087
0.00477178783
0.00495242368
0.00519299959
0.00556695003
0.00601644363
0.00644210889
0.00682109491
0.00703125722
0.00679979973
0.00581980486
0.00370041277
0.00164628284
0.000621527149
0.000224049762
0.000100202712
0.000119215507
0.000214700596
0.000351563854
0.000512503122
0.000687299931
0.000869711766
0.00105509587
0.00124134191
0.00142654737
0.00160896887
0.00178731255
0.00196066255
0.0021283762
0.00229004666
0.0024454534
0.00259451041
0.00273722489
0.0028736742
0.00300398564
0.00312832829
0.00324692246
0.00336005008
0.0034680624
0.00357137873
0.00367047146
0.00376584248
0.00385802915
0.00394762161
0.004035322
0.00412192041
0.00420806672
0.00429418384
0.00438039892
0.00446690238
0.00455396192
0.00464181385
0.00473063265
0.00482053706
0.00491152564
0.00500369478
0.00509730787
0.00519262635
0.00528972942
0.00538847482
0.00548851126
0.0055895046
0.00569141584
0.00579465041
0.00589994535
0.00600876983
0.00612335863
0.006247894
0.00638842302
0.00655425197
0.00674449295
0.00698409738
0.0072938961
0.00772601955
0.0083062605
0.00916255686
0.0106202172
0.0118644342
0.0122424354
0.012233606
0.0120500188
0.0118715325
0.0118029066
0.0118096127
0.0117616206
0.0114549857
0.0107862367
0.00984092912
0.00897020509
0.00848769635
0.00839571107
0.00859358488
0.00896356574
0.00929867114
0.00911811278
0.00828641461
0.00715621503
0.00572235243
0.00385607044
0.0018658991
0.000201896301
0.00158749605
0.012344382
0.0283168658
0.0315634985
0.0341292689
0.0360434019
0.0406426192
0.0331603321
0.0119304457
0.000443672494
0.000132722933
0.000460090655
0.00100267364
0.00166853085
0.0023362247
0.00300093934
0.00359714419
0.00402452268
0.00421091747
0.00421740514
0.00414000999
0.00407022223
0.0041177468
0.00434241895
0.00466206116
0.00495340743
0.00517200286
0.00518756388
0.00477467626
0.00379073232
0.00213533574
0.000828722452
0.000361287806
0.000317519129
0.00044822128
0.000646898533
0.000877744643
0.00111951227
0.00136517414
0.00161037527
0.00185253212
0.00208940345
0.00232013866
0.00254390168
0.0027596475
0.0029665832
0.00316412909
0.00335190758
0.00352974835
0.00369764948
0.00385572653
0.00400417065
0.00414323023
0.00427319039
0.00439436619
0.0045071188
0.00461186984
0.00470910745
0.00479937906
0.00488326658
0.00496135917
0.00503428793
0.00510278728
0.00516781513
0.00523051232
0.0052917974
0.00535213617
0.00541151013
0.00547017305
0.00552852633
0.00558692567
0.00564569908
0.00570504176
0.00576490174
0.00582530243
0.00588656291
0.00594908759
0.00601311051
0.0060785871
0.00614515205
0.00621237182
0.0062801542
0.00634892663
0.00641946467
0.00649331732
0.00657288901
0.00666275054
0.00676950628
0.00690370981
0.00706625061
0.00728283367
0.00757909323
0.00801226197
0.00862128437
0.00954171658
0.0111222046
0.0126267228
0.0133114499
0.0135397297
0.0135318171
0.0134943582
0.0135764288
0.0137463199
0.0138004951
0.0134628521
0.0126222283
0.0114095675
0.0102368488
0.00947717394
0.00915632897
0.00917691585
0.0094254529
0.00971483756
0.00959885967
0.00894050876
0.00812342438
0.00715156922
0.00570061919
0.00395826025
0.0015145625
0.000302156454
0.0067783158
0.0206559981
0.0245261716
0.0287452624
0.0328588867
0.0424887686
0.0408653806
0.0216796514
0.00249751947
3.56150837e-05
6.53602816e-05
0.000469961107
0.00114913512
0.00188616963
0.00258914791
0.00312744576
0.00338185164
0.00332869503
0.00310166133
0.00284965682
0.00267418441
0.00266213022
0.00284234364
0.00312052057
0.00336574317
0.00352074815
0.00347174504
0.00306810394
0.00230620902
0.00125832186
0.000652012791
0.000616175093
0.00082641979
0.00113425095
0.00145566428
0.00177942076
0.00209396121
0.00239969922
0.00269616545
0.00298294202
0.00325897781
0.00352410463
0.00377810508
0.00402026143
0.00424997481
0.00446676773
0.00467035437
0.00486066952
0.00503783124
0.00520208137
0.00535373615
0.00549316908
0.00562078637
0.00573701899
0.00584234458
0.00593730488
0.00602250762
0.00609860958
0.0061662763
0.00622614684
0.00627890325
0.00632539261
0.00636683974
0.00640480581
0.006440529
0.00647449597
0.0065065985
0.00653710205
0.00656648597
0.00659522857
0.00662385025
0.00665266509
0.00668156907
0.00671046869
0.00673970312
0.00676980944
0.00680119076
0.00683393051
0.00686767191
0.00690188247
0.00693641698
0.00697173662
0.00700866518
0.00704883248
0.00709480434
0.00715152265
0.00722607017
0.00733012074
0.0074664012
0.00766086587
0.00794287731
0.00837299328
0.00900150409
0.00996080655
0.0116046517
0.0133059403
0.0142868849
0.0147863846
0.0150048021
0.0151698516
0.0154710181
0.0158656771
0.0160622375
0.0157187799
0.0147367582
0.0133045602
0.0118914581
0.0109193446
0.0104351447
0.0103496436
0.0105612063
0.0109157117
0.0110227218
0.0107485571
0.0104696256
0.0100932882
0.0089119648
0.00708690239
0.0037473411
0.000488888541
0.00353430723
0.0139536301
0.0182089012
0.0230632573
0.0282928479
0.0420843328
0.0465853565
0.0319223517
0.00719406377
0.000731891957
9.86904742e-05
4.08806849e-05
0.000445606731
0.00105083919
0.00166307058
0.00209459875
0.00222193806
0.00206606811
0.0017874004
0.00153433619
0.00138404019
0.001388703
0.0015606979
0.00182036354
0.00204960536
0.00218963919
0.00215501271
0.00186408729
0.00139615484
0.000910726133
0.00086207551
0.00114714974
0.00154833526
0.00199059891
0.00240676038
0.00280407152
0.00317767368
0.00353359581
0.00387413453
0.00419978235
0.00451057127
0.00480671061
0.00508831549
0.00535480326
0.00560561505
0.00584027377
0.00605851746
0.00626033884
0.00644594425
0.0066156795
0.00676996872
0.00690929748
0.00703418274
0.00714516284
0.00724282557
0.00732782876
0.00740089652
0.00746278884
0.00751423906
0.00755590362
0.00758846895
0.00761285022
0.00763053578
0.00764356537
0.00765352558
0.00766103132
0.00766589465
0.00766828597
0.00766872739
0.00766781086
0.00766628997
0.00766465611
0.00766276726
0.00766037563
0.00765780303
0.00765570454
0.00765466527
0.00765493384
0.00765619812
0.00765784288
0.00765968947
0.00766226868
0.00766649015
0.00767409937
0.00768785624
0.00771311051
0.00775744123
0.00783360257
0.00794661956
0.00812191713
0.00839260825
0.00882153689
0.00946940692
0.0104593222
0.0121349037
0.0139814174
0.0152348185
0.0160193939
0.0164983958
0.016915994
0.0174930279
0.0181538498
0.0185086934
0.0181681519
0.0170704613
0.0154692881
0.013882537
0.0127668206
0.012186847
0.0120675141
0.0123277844
0.0128597787
0.0133460746
0.0136542617
0.0141140789
0.014428597
0.0132705955
0.0109129251
0.00647569794
0.00134728345
0.00202130633
0.0092178842
0.013376973
0.0180762153
0.023406952
0.039818718
0.04805
0.0415363758
0.0143243159
0.00248744015
0.000871912855
0.000142262145
2.42851413e-05
0.000306264069
0.000714785006
0.00103112855
0.00112615762
0.00101857361
0.000824189148
0.000649133594
0.000545089491
0.000548441004
0.000680302221
0.000895553864
0.00110051113
0.00123961219
0.00125419289
0.00111174456
0.000926338088
0.000904125564
0.001287023
0.00182266551
0.0023808272
0.00293616127
0.00343460312
0.00389760811
0.00432529079
0.00472820404
0.00511040152
0.00547355162
0.00581804338
0.00614455985
0.00645336648
0.00674392725
0.00701565731
0.00726805121
0.00750086118
0.0077141369
0.0079081774
0.0080834376
0.00824045265
0.00837982213
0.0085021744
0.00860815532
0.00869846317
0.00877387349
0.00883522896
0.00888339211
0.00891915288
0.00894315377
0.00895603264
0.0089587119
0.00895291908
0.00894118567
0.00892554034
0.00890688666
0.00888488098
0.00885951721
0.00883130933
0.00880093944
0.00876943253
0.00873752829
0.00870507447
0.00867163569
0.00863747408
0.00860333979
0.00857000715
0.00853792977
0.00850688556
0.00847620281
0.00844570073
0.00841603022
0.00838823934
0.00836423915
0.00834703243
0.00834243153
0.00835857371
0.00840927732
0.00850189238
0.00866198131
0.0089253711
0.00935691087
0.0100269956
0.0110456421
0.012735245
0.0146871919
0.016185243
0.0172564213
0.0180188799
0.0187305521
0.019629061
0.0205779823
0.0210876495
0.0207501588
0.019564261
0.0178507753
0.0161629774
0.0149763848
0.0143699733
0.0142895096
0.0146844341
0.0155086642
0.0165360244
0.0176322876
0.0190526274
0.0201946759
0.0187673762
0.0152740943
0.00950756586
0.00249488635
0.00149080063
0.00627661352
0.010010224
0.0141720887
0.0189948847
0.0361609001
0.04805
0.04805
0.0232096827
0.00527767361
0.00237426263
0.000956750961
0.000212577339
7.91608326e-05
0.000231249054
0.00043982478
0.000559559009
0.000560975452
0.000471827165
0.000349570493
0.000237555964
0.000177217813
0.00021360898
0.000343597233
0.000501754842
0.000635787465
0.00070610705
0.000709702531
0.000765273756
0.00111073351
0.00183338122
0.00257693402
0.00327382791
0.00393168638
0.00450742372
0.00503362325
0.00551434734
0.00596392497
0.00638767099
0.00678826762
0.00716668021
0.00752385083
0.00786011088
0.00817494536
0.00846773285
0.00873795508
0.0089854035
0.00921021142
0.00941279573
0.00959374003
0.00975370317
0.00989340635
0.0100135933
0.0101150195
0.0101984951
0.0102649155
0.0103152457
0.0103504521
0.0103713731
0.010378607
0.0103726849
0.010354459
0.0103258354
0.0102898144
0.0102490901
0.0102049171
0.0101567508
0.0101043242
0.0100480734
0.00998872868
0.00992761868
0.00986581458
0.00980319693
0.00973911355
0.00967371852
0.00960782314
0.00954238945
0.00947811643
0.00941492566
0.00935212313
0.00928956581
0.00922808611
0.0091689329
0.00911424074
0.00906731074
0.00903447826
0.00902452251
0.00905232681
0.00912771735
0.00927649874
0.00953692439
0.00997545093
0.0106713485
0.0117190043
0.0134121943
0.0154394265
0.0171542509
0.0185056591
0.0195662486
0.0206066679
0.0218603102
0.0231002741
0.0237470579
0.0234106416
0.0221697457
0.0204078721
0.0186970076
0.0175155604
0.0169540447
0.0169867632
0.0176043963
0.0188414543
0.0205868567
0.0227112991
0.0253689097
0.027551235
0.0255827721
0.0201147244
0.0127373808
0.00376648999
0.00145098131
0.00457270837
0.00777038766
0.0113144286
0.0154375872
0.0317033268
0.04805
0.04805
0.0332587842
0.00904523416
0.00440093694
0.00241987132
0.00107195525
0.000527315007
0.000430101135
0.000541555977
0.000688874325
0.000777299754
0.00074218445
0.000605159982
0.000414594291
0.000227131531
0.000116550784
0.000122258015
0.000208016135
0.000323650381
0.000440317899
0.000570314589
0.000821241257
0.00145710823
0.00245423129
0.00337821306
0.00420312999
0.00495809039
0.00560953928
0.00619877418
0.00673311292
0.00722999827
0.00769578426
0.00813424797
0.00854705674
0.00893520519
0.00929908802
0.00963823013
0.00995200034
0.0102399111
0.0105018401
0.010738048
0.0109491066
0.0111357549
0.0112987915
0.0114390673
0.0115574445
0.0116547885
0.0117320211
0.0117901582
0.0118302892
0.0118534876
0.0118606346
0.0118522574
0.0118287187
0.0117907036
0.0117401708
0.0116806719
0.0116157049
0.0115469643
0.0114736808
0.0113952318
0.0113118847
0.0112243538
0.0111342954
0.0110432088
0.0109510692
0.0108569838
0.010760943
0.0106637719
0.0105666071
0.0104704326
0.0103753761
0.0102807628
0.0101865344
0.0100937748
0.0100040034
0.00991964081
0.00984434463
0.00978503465
0.00975122432
0.00975888102
0.00982030446
0.00996181978
0.0102237425
0.0106737713
0.0113990395
0.0124765341
0.0141670322
0.016246907
0.0181521668
0.0197722505
0.021139875
0.0225376892
0.0241666309
0.0256824919
0.0264396108
0.0261051698
0.0248504573
0.0231114493
0.0214599012
0.0203619505
0.0199183683
0.0201408007
0.0210728735
0.0228563105
0.0255347274
0.02896232
0.0329773546
0.0361021501
0.0336581107
0.0254709906
0.0160849885
0.00508352523
0.00164085069
0.00362161302
0.00630802403
0.00929785185
0.0127760224
0.0270899536
0.04805
0.04805
0.0437230611
0.0140644982
0.0067279838
0.00437138066
0.00250341412
0.00159445761
0.00128231236
0.00130696032
0.00145870286
0.00158233251
0.00153667765
0.00132223689
0.000997000115
0.000634776152
0.000337999575
0.000186999881
0.000175393859
0.000254723859
0.000400429667
0.000631494314
0.00103743983
0.00190411601
0.00312772272
0.00421236459
0.00515780887
0.00600659656
0.00673346993
0.00738638698
0.00797536509
0.0085205516
0.00902852284
0.00950514568
0.00995256491
0.0103716447
0.010762892
0.0111259242
0.0114601533
0.0117651842
0.0120410414
0.0122881676
0.0125073327
0.0126994601
0.0128655039
0.0130064503
0.0131232792
0.0132169637
0.0132885328
0.0133391209
0.0133699424
0.0133821812
0.0133767598
0.013354112
0.0133143709
0.0132579166
0.0131866548
0.01310477
0.0130166537
0.0129245731
0.0128275272
0.012724433
0.0126152747
0.0125006609
0.0123825885
0.0122630982
0.0121423453
0.0120191801
0.0118933648
0.0117656743
0.0116373918
0.0115098248
0.0113833797
0.0112574505
0.0111321161
0.0110087893
0.0108893346
0.0107765236
0.0106744294
0.0105906168
0.0105354275
0.0105259497
0.0105768475
0.0107152769
0.0109832386
0.0114492863
0.0122071896
0.0133153231
0.0149994681
0.0171151132
0.0191865585
0.0210604918
0.022740395
0.0245182396
0.0265271676
0.0282872422
0.029123646
0.0287983954
0.0275799892
0.0259420264
0.0244355653
0.0235008419
0.023249608
0.023741385
0.0250891563
0.0275857305
0.0314387484
0.036149085
0.0414895003
0.0456296218
0.0425343468
0.031459179
0.0194446915
0.00639836241
0.00192875426
0.00310777699
0.00536042262
0.00790342264
0.010880331
0.0228188879
0.04805
0.04805
0.04805
0.0213334408
0.0092034616
0.00665611329
0.00437313986
0.00314891308
0.00265472429
0.00259961682
0.00273078683
0.00284369616
0.00273871746
0.00240557188
0.00191100516
0.00134414339
0.000834495775
0.0005013143
0.000369180668
0.000392348648
0.000546583865
0.000853058504
0.00138092181
0.00243258143
0.00384555771
0.00507476906
0.00613420446
0.00707409885
0.00787628022
0.00859351983
0.00923798741
0.00983162021
0.0103820002
0.0108966474
0.0113783651
0.0118277591
0.0122455279
0.012631461
0.0129850841
0.0133061679
0.0135949525
0.0138521225
0.0140786921
0.0142757967
0.0144445583
0.0145860997
0.0147015126
0.0147918711
0.0148583038
0.0149020571
0.014924469
0.014926837
0.0149101286
0.0148746695
0.0148203011
0.0147469133
0.0146563459
0.0145533764
0.0144434051
0.0143294378
0.0142102558
0.0140841996
0.0139508299
0.0138105298
0.0136656375
0.013518867
0.0133706706
0.013219635
0.0130652193
0.0129080631
0.0127495497
0.012591347
0.0124342258
0.0122777085
0.0121220677
0.0119691273
0.0118211753
0.0116813995
0.0115543466
0.0114482852
0.0113744779
0.0113511852
0.0113952639
0.0115349458
0.0118135592
0.0123000909
0.0130935331
0.0142328899
0.0159088191
0.0180478204
0.0202633775
0.0223746539
0.0243703062
0.026543839
0.0289197937
0.0308780039
0.0317624368
0.0314619159
0.0303389153
0.0288864926
0.0276135075
0.0269228252
0.0269421199
0.0277917999
0.0296836514
0.0330762974
0.0380398324
0.0441454621
0.04805
0.04805
0.04805
0.037933469
0.022647686
0.00767658868
0.00224641727
0.00284417102
0.0047505391
0.00695380359
0.00957620995
0.0191270035
0.045596365
0.04805
0.04805
0.03127574
0.0118033877
0.00913741477
0.00656916723
0.00506635031
0.00441014614
0.00427701701
0.00436892835
0.00444138338
0.00424901191
0.00377670425
0.00309684152
0.00231045318
0.00157204726
0.00103762509
0.000764181437
0.000711068472
0.000852768801
0.00121079641
0.00183400866
0.0030348669
0.00460697958
0.00596623174
0.00713291896
0.0081608851
0.0090378037
0.00981955165
0.0105198579
0.0111617666
0.0117539084
0.0123058589
0.0128209036
0.0132993333
0.013742136
0.0141493735
0.0145207681
0.0148563339
0.0151565998
0.0154225544
0.0156555003
0.0158568092