/*--------------------------------*- C++ -*----------------------------------*\
| =========                 |                                                 |
| \\      /  F ield         | OpenFOAM: The Open Source CFD Toolbox           |
|  \\    /   O peration     | Version:  2506                                  |
|   \\  /    A nd           | Website:  www.openfoam.com                      |
|    \\/     M anipulation  |                                                 |
\*---------------------------------------------------------------------------*/
FoamFile
{
    version     2.0;
    format      ascii;
    arch        "LSB;label=32;scalar=64";
    class       volScalarField;
    location    "2644";
    object      I2;
}
// * * * * * * * * * * * * * * * * * * * * * * * * * * * * * * * * * * * * * //

dimensions      [0 0 0 0 0 0 0];

internalField   nonuniform List<scalar> 
15600
(
-1.46608786e-06
-1.75539182e-06
-8.39112195e-07
-1.52603976e-09
-2.15717373e-07
-2.34621406e-07
-1.45075865e-07
-1.24045983e-07
-1.0889128e-07
-9.80906717e-08
-8.94014471e-08
-8.93541961e-08
-9.56003705e-08
-1.11168822e-07
-1.39532682e-07
-1.83895292e-07
-2.41263615e-07
-3.0761838e-07
-3.80569508e-07
-4.51530813e-07
-5.10339426e-07
-5.57574217e-07
-5.98367713e-07
-6.25867081e-07
-6.39935268e-07
-6.53804012e-07
-6.54397788e-07
-8.62331497e-07
-1.50864535e-06
-2.30851989e-06
-3.05491892e-06
-3.78334125e-06
-4.45243456e-06
-5.06148789e-06
-5.60125889e-06
-6.06858887e-06
-6.45911485e-06
-6.77080788e-06
-7.00312115e-06
-7.15725904e-06
-7.23550121e-06
-7.24148103e-06
-7.17991881e-06
-7.05633605e-06
-6.87692252e-06
-6.64832856e-06
-6.37744503e-06
-6.07122046e-06
-5.73651022e-06
-5.37995513e-06
-5.00790311e-06
-4.62636217e-06
-4.24096306e-06
-3.85693437e-06
-3.47908535e-06
-3.11178016e-06
-2.75888923e-06
-2.42371429e-06
-2.10888325e-06
-1.81625842e-06
-1.54695701e-06
-1.30145765e-06
-1.07985805e-06
-8.82009352e-07
-7.07536452e-07
-5.55720833e-07
-4.25516274e-07
-3.15683143e-07
-2.24869085e-07
-1.51707688e-07
-9.48202753e-08
-5.27644741e-08
-2.4015062e-08
-7.01854583e-09
-2.60014064e-10
-2.30438483e-09
-1.1789894e-08
-2.73861638e-08
-4.77523575e-08
-7.14892573e-08
-9.70908977e-08
-1.22858397e-07
-1.46896326e-07
-1.66977286e-07
-1.80773034e-07
-1.85684414e-07
-1.8003307e-07
-1.61622762e-07
-1.3191411e-07
-9.09390226e-08
-4.90416023e-08
-1.20278449e-08
-3.03697825e-09
-1.50898953e-08
-1.00744598e-08
-3.22620746e-09
-4.95722372e-10
-1.38419574e-08
-5.28517663e-08
-1.40225277e-07
-3.11587985e-07
-6.1133189e-07
-1.07423677e-06
-1.70146296e-06
-2.37957822e-06
-2.97132246e-06
-3.47528954e-06
-3.93007204e-06
-4.39510042e-06
-4.97717892e-06
-6.00310228e-06
-7.75363203e-06
-1.03451733e-05
-1.45149229e-05
-2.10160841e-05
-2.91359962e-05
-2.81025748e-05
-1.55538115e-05
-5.03537051e-06
-1.68174519e-06
-7.36218362e-05
-7.42034352e-05
-4.15093831e-05
-2.77057643e-06
-3.52890536e-06
-6.17779062e-06
-4.22992916e-06
-3.64635689e-06
-3.24756159e-06
-2.97190522e-06
-2.77336707e-06
-2.82192001e-06
-3.07115695e-06
-3.6119378e-06
-4.5454821e-06
-5.940223e-06
-7.69381896e-06
-9.69066257e-06
-1.18507731e-05
-1.3953569e-05
-1.57955682e-05
-1.74466207e-05
-1.90229783e-05
-2.03794638e-05
-2.15536852e-05
-2.28623213e-05
-2.50867101e-05
-3.36381706e-05
-5.24745091e-05
-7.3809476e-05
-9.28333486e-05
-0.00011031898
-0.000125651508
-0.000138920319
-0.000150052599
-0.000159070427
-0.000165977148
-0.000170819113
-0.000173668653
-0.000174626274
-0.000173809861
-0.000171371814
-0.000167438768
-0.00016220218
-0.000155847548
-0.000148552161
-0.000140491241
-0.000131834852
-0.000122745496
-0.000113376392
-0.000103870486
-9.43599268e-05
-8.49657014e-05
-7.57974205e-05
-6.69531532e-05
-5.85189974e-05
-5.05682326e-05
-4.31600272e-05
-3.63379139e-05
-3.01290298e-05
-2.4545407e-05
-1.9586963e-05
-1.52460884e-05
-1.15096795e-05
-8.35912182e-06
-5.76882547e-06
-3.70735409e-06
-2.13976075e-06
-1.02913004e-06
-3.37742184e-07
-2.68319664e-08
-5.60095008e-08
-3.83885591e-07
-9.69524423e-07
-1.77365384e-06
-2.75880571e-06
-3.88846195e-06
-5.12554848e-06
-6.43153434e-06
-7.76484116e-06
-9.07928477e-06
-1.03210203e-05
-1.14282664e-05
-1.232631e-05
-1.29338122e-05
-1.31547271e-05
-1.29057014e-05
-1.20916754e-05
-1.0713954e-05
-8.70660891e-06
-6.33338129e-06
-3.61854203e-06
-1.19379753e-06
-5.87995238e-07
-7.38265943e-07
-1.15293426e-06
-2.0402536e-06
-3.45415895e-06
-5.62522789e-06
-9.23481887e-06
-1.51210519e-05
-2.41708826e-05
-3.69170444e-05
-5.31923891e-05
-7.05616119e-05
-8.60287751e-05
-9.91774748e-05
-0.000110840408
-0.000122390375
-0.000136256343
-0.000159521936
-0.000198970493
-0.000257951583
-0.000350048066
-0.000490784293
-0.000675314076
-0.000721712684
-0.000513727976
-0.000235170511
-0.000101215729
-0.000912511992
-0.000805502696
-0.00049324848
-8.56059141e-05
-8.26205093e-06
-3.9771999e-05
-3.13607353e-05
-2.74295858e-05
-2.48690729e-05
-2.32082162e-05
-2.22534972e-05
-2.31200024e-05
-2.56364554e-05
-3.05074881e-05
-3.84643702e-05
-4.97797783e-05
-6.35593344e-05
-7.89598431e-05
-9.53522698e-05
-0.000111424911
-0.000126450745
-0.000141355827
-0.000156876294
-0.000172473753
-0.000188772451
-0.000208545272
-0.000244609996
-0.000321229039
-0.000446510137
-0.000576774158
-0.000685228941
-0.000776194507
-0.000849536906
-0.000906846049
-0.000949040198
-0.000977185326
-0.000992243092
-0.000995267414
-0.000987340797
-0.000969575386
-0.000943081909
-0.000909050348
-0.000868162064
-0.000822188197
-0.000772258088
-0.000719408145
-0.000664605993
-0.000608745142
-0.000552642296
-0.000497037005
-0.000442593087
-0.000389900594
-0.000339477791
-0.000291773044
-0.000247166044
-0.00020596768
-0.000168418426
-0.000134685875
-0.000104863209
-7.89725107e-05
-5.69749677e-05
-3.87858007e-05
-2.42895881e-05
-1.33447821e-05
-5.78279425e-06
-1.40694385e-06
-4.36914985e-13
-1.33171793e-06
-5.16379123e-06
-1.12505258e-05
-1.93362053e-05
-2.91571855e-05
-4.04503217e-05
-5.29602223e-05
-6.64426357e-05
-8.06599851e-05
-9.53729815e-05
-0.000110329664
-0.000125260051
-0.000139863897
-0.000153797757
-0.000166652074
-0.00017794196
-0.000187073277
-0.000193365228
-0.000195977942
-0.000193818198
-0.000186107444
-0.000172359778
-0.000151635899
-0.000124790292
-9.05952125e-05
-5.81721805e-05
-4.78573988e-05
-4.99255295e-05
-5.70307385e-05
-6.82286619e-05
-8.34774307e-05
-0.000104384773
-0.000135819067
-0.000182324527
-0.000247259487
-0.000331309096
-0.000432372686
-0.00053927792
-0.00063733527
-0.000721512079
-0.000795283823
-0.000865775606
-0.000945923566
-0.00107113576
-0.00128031772
-0.00159599205
-0.00206946894
-0.00276308794
-0.00368101321
-0.00420854921
-0.00372919296
-0.0023535579
-0.00131612949
-0.00507860133
-0.00416492213
-0.00268314448
-0.000781065211
-7.90228297e-08
-0.000117835679
-0.000115179778
-0.000103373153
-9.59294877e-05
-9.18047877e-05
-9.08078532e-05
-9.65937327e-05
-0.000109213407
-0.000131387527
-0.000165579999
-0.000211696771
-0.000265905926
-0.000325157955
-0.000387269822
-0.000449128362
-0.000511145753
-0.000577965979
-0.000652282841
-0.000734515245
-0.000828242139
-0.000946227176
-0.00113878741
-0.00140243598
-0.00172372589
-0.0020257229
-0.00224142008
-0.00238519172
-0.00247066265
-0.00250733656
-0.00250308761
-0.00246451956
-0.00239747736
-0.00230719274
-0.0021983147
-0.0020750086
-0.00194161379
-0.00179812164
-0.00165005844
-0.00150073863
-0.00135240335
-0.00120694101
-0.00106595862
-0.000930813109
-0.000802640049
-0.000682379282
-0.000570796591
-0.000468500939
-0.000375958685
-0.00029350516
-0.000221353269
-0.000159600175
-0.000108232794
-6.71342732e-05
-3.60937193e-05
-1.48214158e-05
-2.96726907e-06
-1.38136241e-07
-5.90705099e-06
-1.98122883e-05
-4.13547423e-05
-7.00043125e-05
-0.000105204434
-0.000146378842
-0.000192935437
-0.000244255741
-0.000299706116
-0.000358638195
-0.000420409687
-0.000484387234
-0.000549947054
-0.000616460503
-0.000683274058
-0.000749685285
-0.000814922849
-0.000878112544
-0.00093823112
-0.000994049859
-0.00104406109
-0.00108642169
-0.00111887288
-0.00113848675
-0.00113901174
-0.0011185426
-0.00107311297
-0.000998143714
-0.000888951228
-0.000734488304
-0.000600531197
-0.000562581752
-0.000562184396
-0.000588793811
-0.000623545485
-0.000672983366
-0.000743629555
-0.000849148894
-0.000999084985
-0.00119434554
-0.00142925663
-0.00169757942
-0.00198609045
-0.00226878293
-0.00252371212
-0.00275115025
-0.0029633133
-0.00318801896
-0.00349662131
-0.00398648174
-0.00472636542
-0.00577293987
-0.00719116622
-0.00899668176
-0.0105915506
-0.0111186386
-0.00929124977
-0.00684127198
-0.015413724
-0.0126266446
-0.00860094853
-0.00356096002
-0.00015658064
-0.000194098876
-0.000275319326
-0.000258489404
-0.000247525349
-0.000244863192
-0.000251136587
-0.000274314059
-0.000316305699
-0.000383874458
-0.000481713264
-0.00060614576
-0.000746548321
-0.000895663678
-0.0010492796
-0.00120506158
-0.00137092022
-0.00155899121
-0.0017753327
-0.00202567269
-0.00231864901
-0.00267710766
-0.0031516162
-0.00352099374
-0.00377564394
-0.00393941022
-0.00394743685
-0.00383792219
-0.00365875327
-0.00343314132
-0.00317943524
-0.00291028305
-0.00263560805
-0.00236277181
-0.00209729157
-0.00184350541
-0.00160250822
-0.00137528038
-0.00116537978
-0.000973712175
-0.00080045613
-0.000645507558
-0.000508576746
-0.000389249869
-0.000287033169
-0.000201383061
-0.000131725124
-7.746585e-05
-3.80008136e-05
-1.27206586e-05
-1.01614068e-06
-2.28389644e-06
-1.59327333e-05
-4.1389395e-05
-7.81011861e-05
-0.000125533259
-0.000183164243
-0.000250484547
-0.000326996945
-0.000412217554
-0.000505658467
-0.000606806074
-0.000715092382
-0.000829908892
-0.000950610244
-0.00107654261
-0.00120710861
-0.00134168221
-0.0014796056
-0.00162015657
-0.00176255225
-0.00190596731
-0.00204954152
-0.00219237995
-0.00233350197
-0.00247181462
-0.00260604222
-0.00273471526
-0.00285597261
-0.00296767389
-0.0030669541
-0.00315001238
-0.00320145655
-0.00322169927
-0.00319999639
-0.00312822373
-0.00297840538
-0.00271864701
-0.00255272763
-0.00253704196
-0.00247728279
-0.00247238568
-0.00246986867
-0.00250673081
-0.00259702497
-0.00275036006
-0.00297179659
-0.00324568338
-0.00355523234
-0.00390047646
-0.00431033227
-0.00477944335
-0.00525760221
-0.00571801512
-0.00615393046
-0.00658136776
-0.0070451969
-0.00767569125
-0.00860407962
-0.00979477317
-0.0112084108
-0.0128952619
-0.0154140689
-0.0187166167
-0.0196676455
-0.0182980464
-0.0288224846
-0.0247006401
-0.0182920486
-0.00995054858
-0.00140957076
-0.000148077153
-0.000475013176
-0.000484511228
-0.000485169846
-0.000502013594
-0.000537739988
-0.000605242946
-0.000711423026
-0.000867947453
-0.00107861937
-0.00132840391
-0.0015954494
-0.00186654341
-0.00213677169
-0.00241133918
-0.00271253514
-0.00305670057
-0.00344908346
-0.00390185858
-0.00442001388
-0.00499447734
-0.00553413389
-0.00550478737
-0.00503567752
-0.00447889939
-0.00389537189
-0.00331684832
-0.00278775683
-0.0023134194
-0.00189604279
-0.001533036
-0.00122108372
-0.000955942711
-0.000733227808
-0.000548612898
-0.000396618078
-0.000273968178
-0.000177737572
-0.000104967972
-5.3028335e-05
-1.96389516e-05
-2.83709128e-06
-9.37887664e-07
-1.24952157e-05
-3.62648699e-05
-7.11726915e-05
-0.000116289451
-0.000170812239
-0.000234052406
-0.000305430085
-0.000384471428
-0.000470803638
-0.000564139583
-0.000664244683
-0.000770893465
-0.000883847215
-0.00100286934
-0.00112778465
-0.00125850789
-0.00139498517
-0.0015370732
-0.00168447127
-0.00183679124
-0.00199359761
-0.00215456224
-0.00231952234
-0.00248832473
-0.00266067803
-0.00283611296
-0.00301399595
-0.00319362927
-0.00337433439
-0.00355551691
-0.00373658807
-0.00391698271
-0.00409612176
-0.00427355928
-0.00444875404
-0.00462158473
-0.00479167538
-0.00495878722
-0.00510737148
-0.00524476095
-0.00536093018
-0.00545772604
-0.00548708905
-0.00542553787
-0.00558559042
-0.00571832326
-0.00551200721
-0.00534313999
-0.00517986404
-0.00510007946
-0.00511776972
-0.00520538698
-0.00534436498
-0.00549558893
-0.00564169663
-0.00580940175
-0.00610921381
-0.00659251853
-0.00719472071
-0.00785158836
-0.0085116183
-0.00913274932
-0.00962995443
-0.0100886808
-0.010692173
-0.0112958049
-0.0117923971
-0.012318325
-0.0148355147
-0.0210763806
-0.0274189734
-0.0304597615
-0.0385760142
-0.0349173965
-0.0284828565
-0.0192624922
-0.00548955186
-1.33285412e-06
-0.000588276534
-0.000708403653
-0.000759553442
-0.00083748403
-0.000947580459
-0.0011045171
-0.00132274716
-0.00161478317
-0.00197315368
-0.00235962442
-0.00273865077
-0.00309091978
-0.0034140508
-0.00372749354
-0.00406692015
-0.0044407665
-0.00484611498
-0.00529984335
-0.00579238936
-0.00623978175
-0.00636679858
-0.00555792959
-0.00418387429
-0.00299770219
-0.00212649424
-0.00147660946
-0.00100439228
-0.000661103487
-0.000414810728
-0.000241733051
-0.000124954177
-5.17706883e-05
-1.25985731e-05
-3.66167086e-08
-8.60899403e-06
-3.42630384e-05
-7.37582906e-05
-0.000124556389
-0.000184673316
-0.000252557435
-0.00032699214
-0.000407019119
-0.000491877568
-0.000580957987
-0.000673771629
-0.000769932372
-0.000869146529
-0.000971212079
-0.00107602554
-0.00118358717
-0.00129399438
-0.00140741016
-0.0015239944
-0.00164382255
-0.00176686169
-0.0018930281
-0.00202234952
-0.00215504079
-0.00229139299
-0.00243150479
-0.00257518624
-0.00272213894
-0.00287201539
-0.00302471545
-0.00318037132
-0.00333920992
-0.00350123928
-0.00366618602
-0.00383351644
-0.00400260638
-0.00417290385
-0.00434405303
-0.00451579742
-0.00468801478
-0.00486072198
-0.00503435581
-0.00520959712
-0.00538823076
-0.00557250247
-0.00576630342
-0.00596052744
-0.00616966213
-0.00639257677
-0.00665057199
-0.00690133912
-0.0071709999
-0.00781122774
-0.00815425995
-0.00785578655
-0.00752604131
-0.00721082001
-0.00701695173
-0.00695741292
-0.00695728726
-0.0069553205
-0.00688703962
-0.00674446176
-0.00659051832
-0.00660414086
-0.00689074972
-0.00739465252
-0.00803739459
-0.00873771369
-0.00939860759
-0.00979596184
-0.00992699564
-0.0100078135
-0.00989816784
-0.00955782653
-0.00909895324
-0.0105882236
-0.0173676459
-0.0285417912
-0.0371411718
-0.0419183948
-0.0400713434
-0.0357838787
-0.0287306059
-0.013116416
-0.000536113162
-0.000443365915
-0.000787410901
-0.000947268685
-0.00114891336
-0.00139985042
-0.00170467273
-0.0020814957
-0.00253014307
-0.00301404982
-0.0034625376
-0.00383215621
-0.00410643879
-0.0042965111
-0.00444547046
-0.00460156683
-0.0047655094
-0.00493245137
-0.0051269006
-0.00532654822
-0.00539087079
-0.00499024647
-0.00371894073
-0.00215576512
-0.00111109882
-0.000538540207
-0.000224646727
-6.80599459e-05
-6.55166791e-06
-5.4183885e-06
-4.35018073e-05
-0.000107417254
-0.000188363201
-0.000280410363
-0.000379907733
-0.000484543224
-0.000592353739
-0.000701939986
-0.000812389387
-0.000923083068
-0.00103362179
-0.00114375705
-0.0012533419
-0.00136229417
-0.00147057209
-0.0015781671
-0.00168510773
-0.00179146641
-0.00189737624
-0.00200305475
-0.00210882133
-0.00221509221
-0.00232233547
-0.00243096447
-0.00254120994
-0.00265308748
-0.0027664948
-0.00288149265
-0.00299845092
-0.00311786804
-0.00323993608
-0.00336448026
-0.00349119279
-0.00361969929
-0.00374992487
-0.00388215075
-0.0040168392
-0.00415417425
-0.00429394955
-0.00443559644
-0.00457840883
-0.00472177935
-0.00486536392
-0.0050089606
-0.0051525237
-0.00529618959
-0.00544062089
-0.0055868737
-0.00573743008
-0.00589558709
-0.00606723004
-0.0062468943
-0.00645250254
-0.00668989145
-0.006992533
-0.00732976351
-0.00776773799
-0.00870335246
-0.00925782424
-0.00900986395
-0.0086424034
-0.00827924611
-0.00805250702
-0.00798373356
-0.00796059844
-0.00786559414
-0.00760605577
-0.00719076255
-0.00672518789
-0.00643185312
-0.00644600426
-0.00671964202
-0.00717262391
-0.00771654108
-0.00824088217
-0.00847242366
-0.00835523918
-0.00812993363
-0.00773500297
-0.0072065641
-0.00646299359
-0.00680705682
-0.0115404264
-0.023850344
-0.0367701661
-0.0397391697
-0.0403939243
-0.0391111198
-0.0361007215
-0.0226099821
-0.00365031543
-7.95122958e-05
-0.00058730904
-0.000886413411
-0.00125702085
-0.00170852831
-0.00221023491
-0.00276473372
-0.00333480687
-0.00383862387
-0.00418207812
-0.00434075816
-0.0043327423
-0.00420813248
-0.00404566094
-0.0039058211
-0.00378729307
-0.00368464406
-0.00361745627
-0.00354859637
-0.00333070587
-0.00271983497
-0.00160539069
-0.000580349645
-0.000117753262
-1.5032894e-06
-3.88726579e-05
-0.0001483012
-0.000292274327
-0.000451725532
-0.000616889182
-0.000782037748
-0.000944153815
-0.00110126661
-0.00125344897
-0.00140044885
-0.00154201008
-0.001678137
-0.0018090269
-0.00193494835
-0.00205622969
-0.00217321712
-0.00228624907
-0.00239563822
-0.00250166226
-0.00260457498
-0.00270462827
-0.00280209134
-0.00289728179
-0.00299060532
-0.0030825861
-0.00317386485
-0.00326514112
-0.00335702331
-0.00344983965
-0.00354358373
-0.00363804841
-0.0037332409
-0.00382962289
-0.00392781517
-0.00402809842
-0.00413032285
-0.00423410771
-0.00433894442
-0.00444471225
-0.00455179412
-0.00466083668
-0.00477214748
-0.00488551805
-0.00500026344
-0.00511550403
-0.00523047826
-0.00534473617
-0.00545798263
-0.00557005269
-0.0056809494
-0.0057912158
-0.00590183305
-0.00601532587
-0.00613514023
-0.00626781279
-0.0064091691
-0.0065773582
-0.00678168873
-0.00705942776
-0.00738630838
-0.0078446161
-0.00888080456
-0.00960592643
-0.00948650704
-0.00917014043
-0.00883637049
-0.0086433316
-0.00862491092
-0.00863504761
-0.00849199443
-0.00807754918
-0.00742977392
-0.00670518295
-0.00615731775
-0.00593251202
-0.00598066407
-0.00621850877
-0.00655690903
-0.00689600668
-0.00698364842
-0.00676029312
-0.00648258815
-0.00615555225
-0.00584574002
-0.00520694575
-0.00484671268
-0.00716881922
-0.0170763409
-0.0312863415
-0.0341374919
-0.037277675
-0.0389031372
-0.0406451029
-0.0316809384
-0.0106464837
-0.000199689012
-0.000183078442
-0.000524898614
-0.00100849605
-0.00164305673
-0.00233398547
-0.00303066442
-0.00363121164
-0.00400976051
-0.00408799563
-0.00390841872
-0.00356230802
-0.00314889212
-0.00276455605
-0.00245666033
-0.00220911777
-0.00200423148
-0.0018425092
-0.0016804215
-0.00141207691
-0.000930981161
-0.000322115207
-8.03909518e-06
-8.2661833e-05
-0.000309121898
-0.000578037172
-0.000849714666
-0.00111250165
-0.00136092791
-0.00159369344
-0.00181034463
-0.00201156836
-0.00219828397
-0.00237228527
-0.00253473059
-0.0026864746
-0.00282840413
-0.00296138498
-0.00308622154
-0.00320368711
-0.00331449407
-0.00341927948
-0.00351859652
-0.003612912
-0.00370263039
-0.003788131
-0.00386979632
-0.00394805558
-0.00402344072
-0.0040966321
-0.00416846209
-0.00423984546
-0.00431157949
-0.00438407796
-0.00445727971
-0.00453082107
-0.00460460435
-0.00467912443
-0.00475512681
-0.0048330649
-0.00491278177
-0.00499375327
-0.00507529441
-0.00515721034
-0.00523998247
-0.00532443869
-0.00541099346
-0.00549939771
-0.00558879783
-0.00567808575
-0.00576629746
-0.00585282791
-0.0059372253
-0.00601911989
-0.00609827584
-0.00617497959
-0.00624996972
-0.00632557053
-0.00640504698
-0.00649503022
-0.00659191427
-0.0067125878
-0.00686790725
-0.00709475299
-0.00737151281
-0.00778415339
-0.00881424474
-0.00965167709
-0.00967356588
-0.00944534407
-0.00917907347
-0.00905775784
-0.0091243164
-0.00919363412
-0.00901601209
-0.00845846953
-0.00760498127
-0.00666921343
-0.00592649908
-0.00552058999
-0.00539226955
-0.00545342972
-0.00561502495
-0.00579411571
-0.00578484418
-0.00555163691
-0.00535876179
-0.00525640897
-0.00533769575
-0.00495839305
-0.00419492286
-0.00484961053
-0.0113872723
-0.0239303705
-0.027408047
-0.0322855232
-0.0360783837
-0.0424985253
-0.0392465865
-0.0203512925
-0.00214966516
-1.65230511e-05
-9.81091429e-05
-0.0004804182
-0.00113226487
-0.00189806838
-0.00263648092
-0.00316767683
-0.00334331582
-0.00314699245
-0.00271383487
-0.00220051053
-0.00171758225
-0.00133279651
-0.00105450535
-0.000848931351
-0.000689760158
-0.000565475567
-0.000445201229
-0.000285074768
-8.84484915e-05
-5.85076747e-06
-0.000248150232
-0.000680952286
-0.00112068544
-0.00152600991
-0.00189166758
-0.00222242672
-0.00252101258
-0.00279077715
-0.00303421906
-0.0032540248
-0.00345284287
-0.00363359028
-0.00379837304
-0.00394881085
-0.00408638642
-0.00421241555
-0.0043280742
-0.00443445386
-0.00453253403
-0.00462317105
-0.00470709342
-0.00478490095
-0.00485709891
-0.00492415017
-0.0049865111
-0.0050446873
-0.00509930757
-0.00515118824
-0.00520134571
-0.0052509163
-0.00530089968
-0.00535179841
-0.00540347303
-0.00545535738
-0.00550718362
-0.00555943216
-0.00561309403
-0.00566880684
-0.00572635769
-0.00578504545
-0.00584397283
-0.00590285536
-0.00596228709
-0.00602329441
-0.00608639526
-0.00615127068
-0.00621685343
-0.00628176338
-0.00634480473
-0.00640519535
-0.00646229615
-0.00651548876
-0.00656424812
-0.00660854677
-0.00664882276
-0.00668711917
-0.00672642661
-0.0067732508
-0.00682446471
-0.00689530397
-0.00699717841
-0.00716498355
-0.00737830631
-0.00772308333
-0.008698251
-0.00959533544
-0.00974276271
-0.00961189177
-0.00942892582
-0.00939858294
-0.00956523475
-0.00969442381
-0.00946984938
-0.00876266264
-0.00772015437
-0.00661361156
-0.00572836748
-0.00519324176
-0.00493542036
-0.00486208093
-0.00488485398
-0.00493807388
-0.00486679554
-0.00467091273
-0.00461683459
-0.0047979573
-0.00537617005
-0.00537327123
-0.00431627182
-0.00388276781
-0.00774194302
-0.0173407834
-0.021315437
-0.0268711964
-0.0317297409
-0.042054819
-0.0448750153
-0.0307827633
-0.0068175612
-0.000714836026
-5.92110016e-05
-4.7078822e-05
-0.000440825496
-0.00106950829
-0.00170567808
-0.00210641273
-0.00212361536
-0.00180724082
-0.00134808244
-0.00090944899
-0.000566378852
-0.000336774183
-0.000196728383
-0.000110427486
-5.60302393e-05
-2.29308607e-05
-3.26748905e-06
-6.9011756e-06
-9.62128675e-05
-0.000414215129
-0.00101086058
-0.00165823031
-0.00222629325
-0.00271203925
-0.00313429181
-0.00350641504
-0.00383549492
-0.0041269854
-0.00438495658
-0.00461259071
-0.00481428336
-0.00499373951
-0.00515374228
-0.00529650562
-0.00542397448
-0.0055378253
-0.00563954349
-0.0057304936
-0.00581188828
-0.00588477567
-0.00595003612
-0.00600837969
-0.00606038939
-0.00610658967
-0.00614748927
-0.00618364937
-0.00621577802
-0.00624481688
-0.00627196703
-0.0062986006
-0.00632594071
-0.00635458749
-0.00638429963
-0.00641424906
-0.00644389687
-0.00647376751
-0.00650517514
-0.00653891594
-0.00657470646
-0.00661163385
-0.00664854989
-0.00668506717
-0.00672191498
-0.00676034648
-0.00680098537
-0.00684341448
-0.00688630707
-0.00692796853
-0.00696694862
-0.00700227788
-0.00703311242
-0.00705855621
-0.00707776399
-0.00709036579
-0.00709648136
-0.00709785149
-0.00709718805
-0.00710078652
-0.00710632282
-0.00712679698
-0.00717426462
-0.00728100854
-0.00742750158
-0.00769962469
-0.00859941789
-0.00951612113
-0.00976498775
-0.00972821573
-0.00963331267
-0.00970210317
-0.00996967692
-0.0101401563
-0.00983897755
-0.00896705729
-0.00774952252
-0.00650905122
-0.00552649166
-0.0049045237
-0.00455399463
-0.00437868018
-0.00429201206
-0.00424511744
-0.00413221084
-0.00399072917
-0.00408324949
-0.00455712419
-0.00572631857
-0.00626645676
-0.00495254602
-0.00367615327
-0.00574382675
-0.012593598
-0.0166512407
-0.0220488003
-0.0269612368
-0.0396911631
-0.0460765526
-0.0409986978
-0.013857457
-0.00269454243
-0.000752740285
-0.000123892265
-2.04509503e-05
-0.000302387755
-0.000701948995
-0.000951596574
-0.00091215175
-0.000656513393
-0.00036105847
-0.000143198075
-2.958481e-05
-6.39149729e-11
-1.78568642e-05
-5.81321181e-05
-0.000111131402
-0.000174272895
-0.000261793661
-0.000418054682
-0.000726290459
-0.00130182823
-0.00209937173
-0.00287127251
-0.00351783705
-0.00405269032
-0.00451126614
-0.00491059804
-0.00525982539
-0.00556492598
-0.00583024575
-0.00605970786
-0.00625868591
-0.00643182385
-0.00658243813
-0.0067132614
-0.00682665239
-0.00692462572
-0.00700896573
-0.00708130514
-0.00714308681
-0.0071955471
-0.00723971315
-0.00727639662
-0.00730624599
-0.00732983363
-0.00734770548
-0.00736046213
-0.00736887605
-0.00737400529
-0.00737723759
-0.00738019748
-0.00738435686
-0.00739042636
-0.00739803711
-0.00740599751
-0.00741344027
-0.00742101701
-0.00743036737
-0.00744245911
-0.00745692662
-0.0074726076
-0.00748805815
-0.00750277199
-0.00751764129
-0.00753418256
-0.00755313099
-0.00757394128
-0.00759497709
-0.00761418388
-0.00762983668
-0.00764077503
-0.00764593922
-0.00764413189
-0.00763416341
-0.00761530415
-0.00758735414
-0.00755175556
-0.00751097414
-0.00747107078
-0.00743052319
-0.00740079258
-0.00739382601
-0.00743951618
-0.00751939186
-0.0077203831
-0.00853761851
-0.00944563218
-0.00977166476
-0.00982061736
-0.00981327221
-0.00998264998
-0.0103408244
-0.0105193411
-0.0101023988
-0.0090499537
-0.00767323799
-0.00633388656
-0.00529298372
-0.00461814561
-0.00420278821
-0.00394929431
-0.00377450097
-0.00364625306
-0.00350377988
-0.00341640565
-0.00363249225
-0.0043632465
-0.0061923611
-0.00753267244
-0.00599804986
-0.0039340192
-0.00479021531
-0.00958756978
-0.0134345896
-0.0182502344
-0.0226128423
-0.0358010786
-0.0456677255
-0.0481863839
-0.0224241627
-0.00598767325
-0.00224519385
-0.000886813168
-0.000179320847
-9.09151164e-10
-8.72889937e-05
-0.000184218717
-0.000159002169
-5.98832674e-05
-9.48881886e-07
-3.63315827e-05
-0.000153728842
-0.000310453314
-0.000467711674
-0.000614375308
-0.000754911948
-0.000896998732
-0.00107115265
-0.00133917873
-0.00178568563
-0.00250341503
-0.00340177322
-0.00424494893
-0.00494083358
-0.00550689593
-0.00599024565
-0.00640871948
-0.00677213158
-0.00708597536
-0.00735411742
-0.00758098044
-0.00777319354
-0.00793620049
-0.00807379011
-0.00818919442
-0.00828518676
-0.00836413342
-0.00842813373
-0.00847910375
-0.00851872818
-0.0085484382
-0.00856941007
-0.00858255356
-0.00858857359
-0.00858807918
-0.00858163969
-0.00856987915
-0.00855361872
-0.00853402196
-0.0085126634
-0.00849143696
-0.00847209267
-0.00845547074
-0.00844103641
-0.00842710876
-0.00841252071
-0.00839802625
-0.00838562006
-0.00837646928
-0.0083701156
-0.00836510706
-0.00835965179
-0.00835310299
-0.00834654651
-0.00834180644
-0.00833973867
-0.00833963738
-0.00833950075
-0.00833686391
-0.00832970721
-0.00831668071
-0.00829650195
-0.0082676505
-0.00822857028
-0.00817816033
-0.00811590811
-0.0080429738
-0.00796162522
-0.00787771263
-0.00779068909
-0.00771064414
-0.00764942454
-0.00763476227
-0.00764957824
-0.00778304957
-0.00851678505
-0.00939687999
-0.00977855671
-0.00990325195
-0.00998078873
-0.0102479569
-0.0106771587
-0.0108199825
-0.0102456345
-0.00900175466
-0.00748550077
-0.00608045603
-0.00501391732
-0.00431278469
-0.00385369908
-0.003540135
-0.00329428854
-0.0031009353
-0.00293790683
-0.00289428513
-0.00319487628
-0.00411618778
-0.00660109784
-0.00909489519
-0.00740792539
-0.00453122904
-0.00447484356
-0.00784648202
-0.011375323
-0.0154911782
-0.0190947416
-0.030996059
-0.0452650243
-0.0480103769
-0.0328018765
-0.0103469268
-0.00444251701
-0.00227742232
-0.000962885495
-0.000303640437
-6.54657147e-05
-1.52547642e-05
-2.36749368e-05
-9.28613185e-05
-0.000263757703
-0.000531144506
-0.000852989223
-0.00117022598
-0.00144231304
-0.00167005839
-0.00187235
-0.00206766711
-0.00229695286
-0.00262860735
-0.003142152
-0.0039197059
-0.00485691345
-0.00573975186
-0.00646726889
-0.00705379175
-0.00755476356
-0.00798725196
-0.00836089679
-0.00867995443
-0.00894733131
-0.00916796763
-0.00934992535
-0.00949937967
-0.00962058665
-0.00971729457
-0.00979272216
-0.00984962089
-0.00989043453
-0.00991738698
-0.00993242202
-0.00993717519
-0.00993297578
-0.00992082871
-0.00990148603
-0.00987558165
-0.00984369389
-0.00980645281
-0.00976471001
-0.00971972002
-0.00967324088
-0.00962745212
-0.00958441612
-0.00954512675
-0.00950881622
-0.00947328449
-0.00943699406
-0.00940076918
-0.00936700717
-0.00933711009
-0.00931051955
-0.00928545311
-0.00925971072
-0.00923247509
-0.00920505809
-0.00917964362
-0.00915722118
-0.00913688968
-0.00911621971
-0.00909227918
-0.0090627335
-0.00902604963
-0.00898071895
-0.00892487628
-0.00885657699
-0.00877434038
-0.00867735472
-0.00856652421
-0.00844397443
-0.00831540257
-0.00818132474
-0.00805082103
-0.00793560363
-0.00786158504
-0.00781345083
-0.0078835459
-0.00853581062
-0.00937540875
-0.00979480407
-0.0099854685
-0.0101448378
-0.0105040106
-0.0109766321
-0.011033724
-0.0102638215
-0.00882580819
-0.00719365477
-0.00575355053
-0.00468772033
-0.00398033395
-0.00349365441
-0.00313507476
-0.00283421205
-0.00259247747
-0.00241775458
-0.00241057488
-0.00275580091
-0.00378127784
-0.00684904702
-0.0108782674
-0.00918149795
-0.0054225686
-0.00458030942
-0.00695192029
-0.0101665518
-0.0136120624
-0.0164636407
-0.0260321949
-0.0450229424
-0.0474517078
-0.0449185446
-0.0154007
-0.00723718096
-0.00416026249
-0.00226463316
-0.00115102014
-0.000605945539
-0.000416987138
-0.000451343184
-0.000665350471
-0.00103643647
-0.00150805289
-0.00201150893
-0.00247026459
-0.00283800556
-0.00312446305
-0.0033633619
-0.00358459202
-0.00383559598
-0.0041861734
-0.00471109296
-0.00549285256
-0.00643129568
-0.00733451786
-0.00808241037
-0.00868247803
-0.0091961121
-0.00963884961
-0.0100196386
-0.0103411726
-0.0106041578
-0.0108151713
-0.0109834772
-0.0111159711
-0.0112174076
-0.0112920924
-0.0113437389
-0.011375528
-0.0113902828
-0.0113905624
-0.0113785871
-0.0113562046
-0.0113248992
-0.0112857661
-0.011239593
-0.0111870256
-0.011128635
-0.0110650381
-0.0109970956
-0.010926134
-0.0108540871
-0.0107834344
-0.01071659
-0.0106547135
-0.0105967925
-0.010540079
-0.0104825316
-0.0104250119
-0.0103703747
-0.0103203018
-0.0102741327
-0.0102297164
-0.0101843774
-0.0101370872
-0.0100894158
-0.0100439673
-0.010001882
-0.0099620269
-0.00992147666
-0.00987676799
-0.00982523018
-0.00976515896
-0.00969481954
-0.00961197907
-0.00951428086
-0.00939985843
-0.00926761997
-0.00911824857
-0.00895378798
-0.00877986462
-0.00859810146
-0.00841700834
-0.0082481461
-0.00811597694
-0.00800729031
-0.00801814844
-0.00859239574
-0.00938372788
-0.0098265531
-0.0100746694
-0.0103135349
-0.0107562877
-0.0112375124
-0.0111565839
-0.0101609317
-0.00853554923
-0.00681430501
-0.00536659663
-0.00432179354
-0.00362271709
-0.00312111398
-0.00273127995
-0.00239189036
-0.00211993997
-0.00194953008
-0.00196753351
-0.00237795244
-0.00357573167
-0.00709277929
-0.0128286293
-0.0113655441
-0.00660121682
-0.00500136367
-0.0066312127
-0.00957704934