/*--------------------------------*- C++ -*----------------------------------*\
| =========                 |                                                 |
| \\      /  F ield         | OpenFOAM: The Open Source CFD Toolbox           |
|  \\    /   O peration     | Version:  2506                                  |
|   \\  /    A nd           | Website:  www.openfoam.com                      |
|    \\/     M anipulation  |                                                 |
\*---------------------------------------------------------------------------*/
FoamFile
{
    version     2.0;
    format      ascii;
    arch        "LSB;label=32;scalar=64";
    class       volScalarField;
    location    "2644";
    object      I3;
}
// * * * * * * * * * * * * * * * * * * * * * * * * * * * * * * * * * * * * * //

dimensions      [0 0 0 0 0 0 0];

internalField   nonuniform List<scalar> 
15600
(
3.10249217e-12
-6.85581235e-12
3.85531027e-12
-2.42686619e-14
-2.36741428e-12
-1.96288488e-12
-6.21252593e-13
-5.87454789e-13
-4.27239766e-13
-3.58481748e-13
-2.35027325e-13
-1.83189854e-13
-1.45330874e-13
-1.25295079e-13
-1.36127342e-13
-1.99326629e-13
-4.02245645e-13
-6.67689238e-13
-1.02872592e-12
-1.34644283e-12
-1.48776937e-12
-1.1439868e-12
-5.63233885e-13
7.024619e-14
7.72385228e-13
2.15583509e-12
4.880647e-13
5.03653926e-12
1.06411565e-11
1.20245511e-11
1.83145723e-11
2.18343745e-11
2.63041816e-11
2.98976882e-11
3.32455847e-11
3.58570415e-11
3.77945361e-11
3.89233573e-11
3.93059999e-11
3.89418678e-11
3.78908054e-11
3.61969011e-11
3.39831383e-11
3.13675791e-11
2.84632423e-11
2.53822466e-11
2.22300673e-11
1.91011662e-11
1.60768484e-11
1.32228506e-11
1.0590693e-11
8.21729742e-12
6.12561398e-12
4.32625391e-12
2.81851883e-12
1.59255864e-12
6.29882962e-13
-9.37066003e-14
-6.07978213e-13
-9.46088175e-13
-1.13939866e-12
-1.22051062e-12
-1.21270494e-12
-1.14167883e-12
-1.02509273e-12
-8.84201922e-13
-7.3189797e-13
-5.80456198e-13
-4.3772761e-13
-3.10177045e-13
-2.02354347e-13
-1.16952246e-13
-5.51565126e-14
-1.67469557e-14
-7.89479829e-16
-5.89584057e-15
-3.02624707e-14
-7.15860544e-14
-1.27110298e-13
-1.93396887e-13
-2.66580636e-13
-3.41292997e-13
-4.12669338e-13
-4.71719248e-13
-5.14937034e-13
-5.26670283e-13
-5.21589771e-13
-4.51840958e-13
-3.90053061e-13
-2.36895292e-13
-1.51561837e-13
-3.4665945e-14
-2.6465168e-16
-1.25332076e-14
4.86685438e-14
2.13924727e-14
4.56335449e-15
1.40713359e-13
5.69285669e-13
1.28451796e-12
1.93305459e-12
5.35869815e-13
-6.06263108e-12
-2.25643969e-11
-4.32102225e-11
-6.51043999e-11
-8.7705248e-11
-1.12269926e-10
-1.4450011e-10
-1.94440163e-10
-3.08935588e-10
-5.07695745e-10
-8.24658767e-10
-1.43631765e-09
-2.3904772e-09
-3.27707004e-09
-1.34690497e-09
-1.83513062e-10
4.15066944e-11
-5.37926635e-12
9.55841169e-10
-2.31382499e-09
2.01076889e-09
8.61554076e-11
1.9909713e-10
1.94558573e-10
1.20527948e-10
7.52682287e-11
6.69586454e-11
4.68635023e-11
3.64069082e-11
2.78676178e-11
2.25786695e-11
2.03824387e-11
2.20146845e-11
4.07714625e-11
6.84562914e-11
1.18442468e-10
1.80090997e-10
2.45880784e-10
2.54527409e-10
2.37327445e-10
1.96422624e-10
1.0359207e-10
-1.01915909e-11
1.68173788e-10
-7.44518263e-10
-1.52542885e-10
-4.77300311e-10
-1.94446556e-09
-1.94979824e-09
-2.73442208e-09
-3.13342196e-09
-3.59376943e-09
-3.90680408e-09
-4.14992309e-09
-4.27872878e-09
-4.3104915e-09
-4.23687751e-09
-4.07582624e-09
-3.84107205e-09
-3.54369052e-09
-3.19213154e-09
-2.80630146e-09
-2.4028167e-09
-1.99631645e-09
-1.59976397e-09
-1.22417102e-09
-8.78350594e-10
-5.69002234e-10
-3.00566806e-10
-7.54416626e-11
1.05810574e-10
2.4434652e-10
3.42714303e-10
4.04732552e-10
4.35067128e-10
4.39128539e-10
4.22504199e-10
3.90540566e-10
3.48306857e-10
2.99740062e-10
2.48762268e-10
1.98131919e-10
1.50687473e-10
1.08097655e-10
7.18703402e-11
4.27609731e-11
2.12083594e-11
7.31378023e-12
8.96480209e-13
1.49164646e-12
8.39738817e-12
2.08121324e-11
3.79022117e-11
5.88488522e-11
8.27675384e-11
1.0877957e-10
1.35840315e-10
1.62973957e-10
1.88812742e-10
2.12321576e-10
2.31333575e-10
2.45496557e-10
2.50939391e-10
2.51248562e-10
2.32789354e-10
2.20140272e-10
1.72151846e-10
1.59181566e-10
8.52639586e-11
3.88053809e-11
2.76765967e-11
-8.49336054e-12
-5.78311069e-12
-3.5881975e-11
-7.53168365e-11
-1.51423856e-10
-2.36253098e-10
-3.45842617e-10
-2.98811135e-10
8.02452198e-11
1.34191412e-09
3.63533232e-09
7.1906452e-09
1.01949998e-08
1.31798334e-08
1.66410009e-08
2.0931541e-08
2.76622889e-08
3.92563569e-08
6.31937884e-08
9.99426333e-08
1.57493816e-07
2.50617704e-07
3.04659805e-07
2.11147481e-07
-2.47526481e-08
-9.62745535e-09
-7.76182131e-09
-2.59643793e-08
-1.29758823e-07
5.35699031e-08
-5.80355341e-09
3.35691512e-10
4.45137833e-10
1.13424787e-09
3.05222915e-10
4.35759911e-10
1.93988052e-10
2.31369066e-10
1.63120626e-10
1.26064046e-10
1.01671407e-10
6.06475946e-11
2.27557632e-10
2.44216116e-10
5.39737991e-10
8.37651108e-10
1.3269315e-09
1.03277067e-09
1.14862385e-09
1.32136917e-09
5.39448489e-10
-6.60453395e-10
6.6796441e-09
-2.35878281e-08
-1.80883517e-09
-3.59062099e-09
-3.16867483e-08
-2.08934437e-08
-2.91699565e-08
-2.86835005e-08
-3.05089572e-08
-3.03265333e-08
-3.00338915e-08
-2.88437788e-08
-2.71703082e-08
-2.48933038e-08
-2.23844098e-08
-1.95373541e-08
-1.63568995e-08
-1.31152083e-08
-9.99157474e-09
-7.07360678e-09
-4.43876938e-09
-2.14031605e-09
-2.09038295e-10
1.34517296e-09
2.52841608e-09
3.36220637e-09
3.87883246e-09
4.11744314e-09
4.12273383e-09
3.94073392e-09
3.618327e-09
3.199332e-09
2.72548903e-09
2.23288095e-09
1.75118251e-09
1.30587742e-09
9.12481286e-10
5.85672466e-10
3.30752479e-10
1.51899857e-10
4.71368533e-11
1.30511302e-11
4.34062648e-11
1.29843984e-10
2.61422249e-10
4.28814359e-10
6.23072253e-10
8.36472142e-10
1.06354918e-09
1.293689e-09
1.5221498e-09
1.74061188e-09
1.94591081e-09
2.12686953e-09
2.28346559e-09
2.39709982e-09
2.47710729e-09
2.47520444e-09
2.44784852e-09
2.26451024e-09
2.21036164e-09
1.61368258e-09
1.72588399e-09
3.54580299e-10
1.40878552e-09
-1.03133347e-09
-1.85516972e-09
2.0084451e-09
-2.49421303e-09
1.05359711e-09
-9.15785307e-10
-1.8215149e-10
-5.73823502e-10
4.98749042e-10
5.21505782e-10
4.06703518e-09
8.02930404e-09
1.82719883e-08
2.82618941e-08
5.37236425e-08
6.5288949e-08
7.58806578e-08
9.20101817e-08
1.10982283e-07
1.45927505e-07
1.74660354e-07
2.95900978e-07
4.80796232e-07
7.00438329e-07
1.23019289e-06
1.74266802e-06
2.99433238e-06
3.40366406e-07
-4.93851523e-09
-3.90112799e-07
-1.68113944e-07
-1.50898045e-06
5.43906431e-07
-1.72806731e-07
-6.92285908e-10
-5.10324639e-09
4.4748873e-09
-1.354398e-09
4.42916539e-10
-1.10406795e-09
-4.53650694e-11
-2.04843032e-10
-2.18399087e-10
-2.0505855e-10
-5.71321846e-10
4.73830663e-10
-9.55902379e-10
-7.10919336e-10
-1.39057492e-09
-6.84235683e-10
-6.15998616e-09
-5.97728674e-09
-4.26328694e-09
-1.23726398e-08
-2.44498085e-08
4.41427788e-08
-2.63627665e-07
2.99509963e-08
6.72069363e-08
-1.21294589e-07
-3.15715465e-08
-7.40522643e-08
-6.05113142e-08
-6.19715114e-08
-5.36787933e-08
-4.75318571e-08
-4.0190262e-08
-3.43561007e-08
-2.96570661e-08
-2.6204206e-08
-2.26820927e-08
-2.10467573e-08
-2.12760985e-08
-2.22835971e-08
-2.36660424e-08
-2.5070911e-08
-2.62060047e-08
-2.6851593e-08
-2.6863933e-08
-2.6179092e-08
-2.47980644e-08
-2.27819487e-08
-2.02431557e-08
-1.73287986e-08
-1.42118605e-08
-1.10746651e-08
-8.09986931e-09
-5.45384825e-09
-3.27943959e-09
-1.68721882e-09
-7.52345204e-10
-5.21314934e-10
-1.01308373e-09
-2.22455283e-09
-4.12216618e-09
-6.6636e-09
-9.78464602e-09
-1.34430006e-08
-1.75327276e-08
-2.19289474e-08
-2.64011852e-08
-3.07825487e-08
-3.51076736e-08
-3.92840055e-08
-4.32867408e-08
-4.70264484e-08
-5.04446339e-08
-5.34031559e-08
-5.58792569e-08
-5.76915827e-08
-5.88621047e-08
-5.90404672e-08
-5.85370742e-08
-5.64218087e-08
-5.39859403e-08
-4.77682904e-08
-4.5021714e-08
-3.15859685e-08
-3.54940434e-08
-7.92138493e-09
-3.14339143e-08
-3.57096167e-08
4.08884303e-08
-7.70385237e-08
8.40391474e-09
-3.8323958e-08
-2.26277018e-08
-3.01721428e-08
-2.03181737e-08
-4.31468579e-08
-4.67003147e-08
-8.54885514e-08
-1.05383978e-07
-1.60266991e-07
-8.55946784e-08
-9.64696439e-08
-1.04788186e-07
-8.3556679e-08
-7.80449617e-08
-4.99510307e-08
-2.74406497e-07
-1.39446197e-07
2.57010053e-08
-3.01341489e-07
1.7357669e-07
5.49393623e-07
9.52329763e-06
3.87398484e-06
3.62036252e-06
-2.70703429e-06
1.16866322e-05
-2.9411201e-07
4.48132135e-06
-1.28566247e-06
-2.77341616e-08
-1.84120037e-08
1.95388711e-08
-5.98966896e-09
2.24502077e-09
-5.54584528e-09
-3.94650253e-10
-1.10561055e-09
-1.17858007e-09
-9.51947895e-10
-2.81082844e-09
3.1804316e-09
-4.04353506e-09
-3.12865686e-09
-7.77530349e-09
-7.68500503e-09
-4.32933131e-08
-5.75311747e-08
-6.90188457e-08
-1.36765348e-07
-2.13787725e-07
1.19758334e-07
-1.32611382e-06
2.52413409e-07
3.27481997e-07
-2.94245278e-07
4.08004959e-08
-9.24666392e-09
7.8266315e-08
1.04444291e-07
1.29037107e-07
1.2972618e-07
1.19052507e-07
9.79574444e-08
7.3230662e-08
4.85339391e-08
2.3879937e-08
6.89664413e-10
-1.72822435e-08
-3.0096456e-08
-3.79554231e-08
-4.13964829e-08
-4.11672514e-08
-3.81245597e-08
-3.31546227e-08
-2.71184582e-08
-2.08061651e-08
-1.49137776e-08
-1.00285536e-08
-6.61983555e-09
-5.03877397e-09
-5.52069588e-09
-8.19270421e-09
-1.30824504e-08
-2.0132875e-08
-2.92242768e-08
-4.01812855e-08
-5.28288858e-08
-6.68950777e-08
-8.21505498e-08
-9.81843585e-08
-1.14841218e-07
-1.31764901e-07
-1.48668221e-07
-1.64514053e-07
-1.78808889e-07
-1.91863331e-07
-2.03518015e-07
-2.13858605e-07
-2.22774504e-07
-2.30163475e-07
-2.35846349e-07
-2.39781668e-07
-2.41571716e-07
-2.41287966e-07
-2.38332532e-07
-2.32879617e-07
-2.23557214e-07
-2.11511945e-07
-1.9291027e-07
-1.72528291e-07
-1.40385718e-07
-1.22542787e-07
-5.38464222e-08
-5.87153758e-08
8.44128077e-08
-2.52763504e-08
-1.23067616e-08
5.31104054e-07
-4.07095468e-07
6.95482226e-08
-3.65855592e-07
-3.35653308e-07
-4.30826419e-07
-4.20910658e-07
-5.8956849e-07
-6.51373699e-07
-8.61542514e-07
-9.57311625e-07
-1.15026298e-06
-8.66012024e-07
-8.8314622e-07
-8.69627009e-07
-7.49489203e-07
-6.78701253e-07
-5.67605842e-07
-1.3847396e-06
-1.10961966e-06
-1.11659659e-06
-3.07068711e-06
-3.73578492e-06
-6.47539362e-06
8.76204111e-06
2.39499366e-06
1.71252277e-05
2.46661011e-06
4.39451973e-05
1.65720971e-05
2.30922319e-05
-2.45113476e-06
-3.87840751e-07
-3.26901319e-08
5.98710813e-08
-1.25114253e-08
1.26882243e-08
-1.44096439e-08
1.95909418e-09
-9.41993568e-10
-2.04382187e-09
-1.6273631e-09
-9.22197124e-09
1.34627465e-08
-1.01576422e-08
-6.12923439e-09
-2.2739747e-08
-2.9355781e-08
-1.60757201e-07
-2.29056467e-07
-2.74149835e-07
-4.62346322e-07
-5.9137088e-07
4.48645045e-07
-3.13901789e-06
9.94867946e-07
8.238024e-07
-1.0030261e-07
4.661477e-07
3.50127943e-07
3.51111762e-07
2.68141234e-07
1.95623698e-07
1.25472334e-07
7.13324568e-08
3.20709925e-08
7.57494556e-09
-6.69305064e-09
-1.37157518e-08
-1.50009613e-08
-1.33089648e-08
-1.05276196e-08
-7.80682969e-09
-5.8431322e-09
-4.98474748e-09
-5.32822747e-09
-6.79812333e-09
-9.21138514e-09
-1.23255951e-08
-1.58758516e-08
-1.96037002e-08
-2.32743635e-08
-2.6692293e-08
-2.96999081e-08
-3.21839996e-08
-3.40478685e-08
-3.52131034e-08
-3.56410382e-08
-3.52527929e-08
-3.41824627e-08
-3.2314971e-08
-2.98892467e-08
-2.66093522e-08
-2.28271201e-08
-1.78276762e-08
-1.09613517e-08
-2.68870551e-09
5.73096402e-09
1.33618363e-08
2.01268117e-08
2.70534834e-08
3.42293338e-08
4.14912477e-08
4.8955956e-08
5.63450437e-08
6.3999554e-08
7.14243795e-08
7.9372098e-08
8.71117656e-08
9.67635072e-08
1.05886969e-07
1.21401263e-07
1.34759e-07
1.66826174e-07
1.63507825e-07
2.58341298e-07
2.17124105e-07
5.05923725e-07
2.85937847e-07
3.85696968e-07
2.11168321e-06
-4.39182577e-07
1.04579905e-06
-2.24896026e-07
-1.36928159e-07
-4.12022429e-07
-3.964876e-07
-7.62548267e-07
-7.98448093e-07
-1.12922808e-06
-1.20179655e-06
-1.5230828e-06
-1.06066278e-06
-1.25165409e-06
-1.39131161e-06
-1.36090084e-06
-1.42229818e-06
-1.39478897e-06
-3.06987672e-06
-2.71114585e-06
-3.09071525e-06
-6.2375781e-06
-6.47024173e-06
-9.69931383e-06
1.88773904e-06
-1.18104248e-05
1.33456347e-05
4.94123749e-06
6.8813495e-06
-3.33369231e-06
4.46098139e-05
3.93848774e-06
-1.55955415e-06
-7.19378264e-08
1.09238811e-07
-2.53437186e-08
3.2771078e-08
-3.56770291e-08
4.92585234e-09
-2.33878282e-09
-6.58535103e-09
-5.48292543e-09
-2.78078998e-08
3.3936033e-08
-2.71023147e-08
-2.08691192e-08
-6.64631725e-08
-8.59655453e-08
-3.5677368e-07
-4.38724304e-07
-4.00033019e-07
-5.81131092e-07
-6.01341617e-07
1.15446804e-06
-4.08927549e-06
1.96016978e-06
1.19637518e-06
1.85700334e-07
3.79559353e-07
1.33166102e-07
5.99286539e-08
6.35704656e-09
-1.02615156e-08
-1.31074e-08
-9.50445837e-09
-5.24748149e-09
-2.56967841e-09
-1.98024349e-09
-2.96727875e-09
-4.64747779e-09
-6.04913859e-09
-6.30281047e-09
-4.71919889e-09
-8.22855432e-10
5.66508816e-09
1.48527381e-08
2.67103548e-08
4.10906078e-08
5.77618205e-08
7.64291274e-08
9.67443254e-08
1.18333273e-07
1.40797965e-07
1.63758409e-07
1.86844875e-07
2.09778998e-07
2.32358587e-07
2.5439906e-07
2.75905921e-07
2.96490041e-07
3.16249069e-07
3.34560039e-07
3.51863433e-07
3.67944378e-07
3.83751276e-07
3.98187963e-07
4.08925964e-07
4.15395519e-07
4.19248428e-07
4.2084076e-07
4.20548197e-07
4.18687188e-07
4.15083545e-07
4.0995607e-07
4.02835033e-07
3.93937219e-07
3.82340217e-07
3.68582447e-07
3.51032656e-07
3.31322032e-07
3.04938633e-07
2.78687623e-07
2.38655177e-07
2.16889031e-07
1.35955321e-07
1.53443771e-07
-1.8273535e-08
2.21485622e-07
-1.82177491e-07
-3.13326968e-07
2.16448101e-06
-1.42327673e-06
1.9630691e-06
4.29534593e-07
9.70274089e-07
7.58806828e-07
9.65995629e-07
6.22658194e-07
7.87527905e-07
4.70603669e-07
4.41332135e-07
-4.80588949e-08
3.59023299e-07
-9.86578071e-08
-4.4450955e-07
-6.16785535e-07
-9.55909298e-07
-1.18786875e-06
-3.29989737e-06
-2.65051982e-06
-2.63564614e-06
-4.74312637e-06
-3.36837766e-06
-4.44438602e-06
1.02128808e-06
-1.03749771e-05
-6.8121166e-06
-5.07407175e-05
-6.42619237e-05
-6.85866154e-05
2.86723655e-05
1.0521921e-05
1.87576813e-06
-7.45689154e-07
1.11675283e-07
-4.12265211e-08
5.69704861e-08
-7.42924417e-08
1.76962538e-09
-1.0795795e-08
-2.03534148e-08
-1.3814096e-08
-6.03217158e-08
6.91224515e-08
-5.085853e-08
-3.94355544e-08
-1.00964334e-07
-7.73607699e-08
-3.6106658e-07
-2.89228203e-07
-1.51214158e-08
-6.05453795e-08
2.71537661e-08
1.84549363e-06
-3.12969759e-06
2.10040183e-06
7.13902914e-07
-3.34793203e-08
1.6373119e-08
-3.08268667e-08
-1.36804647e-08
-3.69112392e-09
-2.54850089e-10
-2.32476521e-09
-6.27093342e-09
-9.14962724e-09
-8.71650431e-09
-4.17988021e-09
5.35133572e-09
1.92928408e-08
3.71118697e-08
5.81305933e-08
8.16366131e-08
1.0688981e-07
1.33210541e-07
1.59996661e-07
1.86737174e-07
2.12986e-07
2.38378587e-07
2.62620427e-07
2.85460917e-07
3.06710985e-07
3.26208728e-07
3.43861645e-07
3.59588203e-07
3.73422261e-07
3.85456593e-07
3.95747064e-07
4.04632468e-07
4.11834567e-07
4.17810033e-07
4.21938314e-07
4.25219729e-07
4.27233179e-07
4.278539e-07
4.25009856e-07
4.19186998e-07
4.1150712e-07
4.02691986e-07
3.92846756e-07
3.81864012e-07
3.70119209e-07
3.57426091e-07
3.44109681e-07
3.29667257e-07
3.14364976e-07
2.97111141e-07
2.78444392e-07
2.56319497e-07
2.32182615e-07
2.00399481e-07
1.67709786e-07
1.15828469e-07
8.13003289e-08
-2.53250727e-08
-4.66170558e-08
-3.00313695e-07
-1.67858861e-07
-7.75267798e-07
-1.41265902e-06
8.64991097e-07
-3.35350637e-06
1.41995802e-06
-2.18815381e-08
1.08008303e-06
1.124891e-06
1.65905094e-06
1.51074797e-06
1.96755107e-06
1.75492943e-06
1.83036018e-06
1.30417535e-06
1.76232779e-06
1.28657223e-06
1.06737537e-06
1.10584043e-06
1.02498985e-06
1.07309925e-06
-7.47502342e-07
9.07074458e-08
1.36029122e-07
-1.79212397e-06
-9.47877477e-07
-1.50941365e-06
2.73929638e-07
-2.9284586e-06
4.21708852e-06
-8.07027443e-05
-3.91314858e-05
-7.74588522e-05
7.35250238e-07
-3.98136086e-06
1.74849848e-05
-4.60013434e-06
4.64447167e-08
-4.04448451e-08
7.30316853e-08
-1.05227984e-07
-1.28616544e-09
-1.63678954e-08
-3.15927794e-08
-1.00960203e-08
-8.47482894e-08
1.27171515e-07
-3.39595028e-08
2.17064479e-08
2.26929428e-08
1.67360898e-07
2.10198827e-08
2.45721137e-07
6.34976876e-07
6.63919108e-07
7.80229877e-07
2.09817583e-06
-1.69673004e-06
1.26841793e-06
1.4952726e-07
-7.80842614e-08
-1.52193669e-08
-1.09961889e-08
-9.23844566e-09
-1.27133687e-08
-1.12365134e-08
-4.90021339e-09
7.88482832e-09
2.45405516e-08
4.45355387e-08
6.73332061e-08
9.1088715e-08
1.14606848e-07
1.37362177e-07
1.58858163e-07
1.78822491e-07
1.97032949e-07
2.13382213e-07
2.27842198e-07
2.40455819e-07
2.51274599e-07
2.60389602e-07
2.67913958e-07
2.73946212e-07
2.78606254e-07
2.81985117e-07
2.84210732e-07
2.85350311e-07
2.85560172e-07
2.84995753e-07
2.83690892e-07
2.82069337e-07
2.79715209e-07
2.77306374e-07
2.74129652e-07
2.71375797e-07
2.67623325e-07
2.62669772e-07
2.56114337e-07
2.49398436e-07
2.42617026e-07
2.35843213e-07
2.28985399e-07
2.21802105e-07
2.14605923e-07
2.07097424e-07
1.99668716e-07
1.91814176e-07
1.83970134e-07
1.75054108e-07
1.65931978e-07
1.54661995e-07
1.43301197e-07
1.26323255e-07
1.12200316e-07
8.08534912e-08
7.3606005e-08
-1.42551984e-09
1.98034972e-08
-1.92937409e-07
-1.13307706e-08
-5.55581502e-07
-1.2520623e-06
1.05826696e-06
-3.64378924e-06
1.41358544e-06
-3.55937061e-07
9.15485924e-07
9.95219394e-07
1.66550921e-06
1.54825802e-06
2.13411042e-06
1.90066702e-06
2.03396851e-06
1.51984012e-06
2.12450089e-06
1.68182267e-06
1.59567322e-06
1.82619406e-06
1.99884283e-06
2.30903823e-06
6.64320167e-07
1.35189206e-06
1.0297387e-06
-1.20643173e-06
-4.38416959e-07
-1.47805497e-06
1.12960435e-07
-1.11606117e-06
1.42625962e-05
-3.0962415e-05
2.27262597e-05
-3.3021262e-05
3.94808333e-06
-2.91100457e-05
3.58163748e-05
-7.65377393e-06
7.88043092e-08
-1.57522082e-08
5.21105236e-08
-8.91990969e-08
1.97309638e-08
1.68464708e-08
2.98784708e-09
4.7196606e-08
-4.29965892e-08
2.33638678e-07
8.99501936e-08
1.89443199e-07
2.34773441e-07
3.95710435e-07
3.14152554e-07
4.89197194e-07
7.60338099e-07
7.25105453e-07
7.35781332e-07
1.37314519e-06
-1.1134402e-06
5.00214314e-07
8.84782394e-09
-3.95588607e-08
-7.896115e-09
-1.73303879e-08
-1.64562125e-09
8.65352501e-09
2.86707495e-08
4.69825234e-08
6.6253405e-08
8.37877592e-08
1.00083766e-07
1.15065647e-07
1.27960692e-07
1.38723261e-07
1.47709122e-07
1.55005155e-07
1.60865621e-07
1.65433208e-07
1.68860753e-07
1.71293503e-07
1.72889268e-07
1.73745819e-07
1.73972609e-07
1.73678594e-07
1.72929934e-07
1.7181115e-07
1.70359157e-07
1.68659062e-07
1.66701657e-07
1.64591189e-07
1.6240861e-07
1.60052666e-07
1.57961506e-07
1.55502448e-07
1.5362698e-07
1.51219006e-07
1.49587876e-07
1.46740266e-07
1.43763929e-07
1.40466979e-07
1.37644576e-07
1.3489336e-07
1.32293001e-07
1.29712253e-07
1.26902376e-07
1.24179454e-07
1.21125043e-07
1.18219401e-07
1.14916946e-07
1.11824232e-07
1.07809838e-07
1.04087243e-07
9.87432828e-08
9.44580013e-08
8.56640028e-08
8.27082183e-08
6.34448767e-08
7.46688564e-08
2.14586104e-08
7.96382647e-08
-9.13110668e-08
1.61234248e-07
-2.52738552e-07
-7.94723135e-07
1.81133668e-06
-3.20608458e-06
1.88954476e-06
-4.06823469e-07
8.36104325e-07
7.82592726e-07
1.43654577e-06
1.18855819e-06
1.7497179e-06
1.3629222e-06
1.51137934e-06
1.01704568e-06
1.8159218e-06
1.36961941e-06
1.32181695e-06
1.56351231e-06
1.70868949e-06
1.96783289e-06
2.35371277e-07
1.00417844e-06
7.67476163e-07
-1.53744922e-06
1.09705788e-07
-1.97271916e-06
1.34215677e-06
-2.38836242e-07
7.06851629e-06
2.3986838e-06
3.57819128e-05
-2.47973921e-06
2.51955611e-05
-4.21641222e-05
2.04957711e-05
9.94041937e-06
1.51812173e-07
-6.55925054e-09
7.19174523e-09
-4.40858763e-08
3.75314584e-08
7.02786154e-08
8.03364457e-08
1.48328348e-07
6.0790446e-08
3.09408246e-07
1.74132663e-07
2.1788499e-07
2.15207097e-07
2.85306317e-07
2.03920131e-07
2.6498878e-07
3.86725217e-07
3.02261283e-07
2.5774445e-07
5.29209541e-07
-7.72997596e-07
2.16890024e-07
1.48291226e-08
-2.53309785e-08
1.9463147e-08
3.94720858e-09
3.48024086e-08
4.15222706e-08
5.87785676e-08
6.81753514e-08
7.66381928e-08
8.18696315e-08
8.92286347e-08
9.37952001e-08
9.75948943e-08
1.00457159e-07
1.02811505e-07
1.04642798e-07
1.06150904e-07
1.07369273e-07
1.08328988e-07
1.09053433e-07
1.09594826e-07
1.09931277e-07
1.10075612e-07
1.10056589e-07
1.09859743e-07
1.09511763e-07
1.08989527e-07
1.083485e-07
1.07522342e-07
1.06605635e-07
1.05650572e-07
1.04463986e-07
1.03582119e-07
1.02267264e-07
1.01554332e-07
1.00073351e-07
9.92648227e-08
9.72371398e-08
9.58013321e-08
9.40109113e-08
9.25299291e-08
9.09247456e-08
8.94488302e-08
8.79504954e-08
8.61554096e-08
8.44675306e-08
8.2353849e-08
8.04237713e-08
7.8046294e-08
7.59884586e-08
7.295559e-08
7.04838697e-08
6.65028314e-08
6.41783058e-08
5.74796302e-08
5.84038689e-08
4.18198975e-08
6.08187563e-08
1.22375007e-08
8.58822061e-08
-7.58596577e-08
2.10442249e-07
-1.41242429e-07
-6.24772086e-07
2.18613161e-06
-3.12334402e-06
2.2002867e-06
-5.43155553e-07
7.19352232e-07
5.36077499e-07
1.17590825e-06
7.68659807e-07
1.28330579e-06
7.21328337e-07
9.12246674e-07
4.45184908e-07
1.46287984e-06
9.88455399e-07
9.72946806e-07
1.20674271e-06
1.26276689e-06
1.40067809e-06
-5.57737661e-07
5.31987422e-07
6.4930406e-07
-1.82151834e-06
1.3101813e-06
-2.53603842e-06
3.8039065e-06
-2.60678443e-07
2.15548643e-06
-2.87577828e-06
1.78528057e-05
-1.02356652e-06
3.68728457e-05
-3.93520454e-05
-2.91053654e-05
4.87562111e-05
4.52792657e-08
-1.81544822e-07
7.9973959e-09
-5.02774213e-09
1.18029577e-08
5.08138607e-08
7.92345976e-08
1.46568648e-07
6.64822093e-08
2.03772193e-07
8.51915007e-08
8.05245357e-08
6.32176439e-08
8.58839225e-08
3.45039801e-08
4.50275694e-08
9.90761214e-08
4.00336986e-08
2.31066059e-08
1.6097805e-07
-4.38939393e-07
1.5289877e-07
3.8784191e-08
-2.9450693e-09
4.82343688e-08
1.30500908e-08
4.3769062e-08
3.77805755e-08
4.92140726e-08
5.0954315e-08
5.47417723e-08
5.44219967e-08
5.98450712e-08
6.2027163e-08
6.47526979e-08
6.71371486e-08
6.95621709e-08
7.18250527e-08
7.40426533e-08
7.61571628e-08
7.81181587e-08
7.98885573e-08
8.1488218e-08
8.28457073e-08
8.39512917e-08
8.48252757e-08
8.54359529e-08
8.58129533e-08
8.59245034e-08
8.58462007e-08
8.5488423e-08
8.49797387e-08
8.43665601e-08
8.33875441e-08
8.28383315e-08
8.15569778e-08
8.09024161e-08
7.92191998e-08
7.83647182e-08
7.63544188e-08
7.51388061e-08
7.32637318e-08
7.16440212e-08
6.98565538e-08
6.82825676e-08
6.66996327e-08
6.47614375e-08
6.30177522e-08
6.07933746e-08
5.88688881e-08
5.64865975e-08
5.45941604e-08
5.16257604e-08
4.9474182e-08
4.57975967e-08
4.42228211e-08
3.80111266e-08
4.08109892e-08
2.40419748e-08
4.65478561e-08
-2.63701622e-09
8.04990737e-08
-8.89748386e-08
2.17327199e-07
-1.173567e-07
-6.23798869e-07
2.33133066e-06
-3.32272451e-06
2.38780148e-06
-7.35209643e-07
6.18212334e-07
3.43205719e-07
1.00934938e-06
4.39809246e-07
9.24451661e-07
2.05038746e-07
4.79876359e-07
3.28766929e-08
1.27340067e-06
7.40838904e-07
7.73436024e-07
1.03125777e-06
1.02195753e-06
1.07440543e-06
-1.16677456e-06
4.60971227e-07
7.97905714e-07
-2.69772153e-06
2.78550138e-06
-3.45072627e-06
6.10838782e-06
-4.80845392e-07
1.29721037e-06
-9.11875076e-06
4.5179874e-06
-8.4312742e-06
3.34484896e-05
-2.82831167e-05
-2.76510506e-05
2.15894736e-05
7.06147021e-06
-6.40495796e-07
6.13910541e-08
-2.27442602e-08
-3.7951041e-10
4.09064389e-09
9.98530045e-09
4.28214693e-08
-9.96960124e-09
5.48494964e-08
7.97182066e-10
2.97008612e-09
1.48525921e-09
1.09072342e-08
-9.24159077e-09
-1.16621058e-08
1.37437765e-08
-1.32239259e-08
-8.37872908e-09
5.75591684e-08
-2.3464231e-07
1.48907855e-07
5.54541749e-08
1.79177302e-08
5.1465629e-08
2.60370223e-09
3.31613627e-08
2.08642823e-08
3.26070166e-08
3.18834627e-08
3.65934788e-08
3.69575184e-08
4.24725668e-08
4.48680307e-08
4.83130924e-08
5.1288921e-08
5.42951288e-08
5.70443978e-08
5.96692751e-08
6.21129942e-08
6.43140777e-08
6.6240264e-08
6.79362929e-08
6.9319654e-08
7.03945557e-08
7.12026038e-08
7.17128054e-08
7.19743816e-08
7.19547483e-08
7.17598628e-08
7.12706891e-08
7.0659787e-08
6.99535372e-08
6.888078e-08
6.84872018e-08
6.67534533e-08
6.60761435e-08
6.40409017e-08
6.3413953e-08
6.12918273e-08
6.01465216e-08
5.80953407e-08
5.63868865e-08
5.45320632e-08
5.30337928e-08
5.15460541e-08
4.96035857e-08
4.79627722e-08
4.57558031e-08
4.39860742e-08
4.17306931e-08
4.01673772e-08
3.73441029e-08
3.55912587e-08
3.22261779e-08
3.13770018e-08
2.5466974e-08
2.99117303e-08
1.25091989e-08
3.73817084e-08
-1.33767178e-08
8.04991564e-08
-1.03114478e-07
2.26731769e-07
-1.08751751e-07
-6.61320428e-07
2.46553719e-06
-3.60198567e-06
2.58727737e-06
-9.10895678e-07
5.75214101e-07
2.34453215e-07
9.49388205e-07
1.86832038e-07
6.54873504e-07
-1.98100939e-07
1.94135373e-07
-2.50665798e-07
1.20913027e-06
5.81827992e-07
6.67947686e-07
9.60409127e-07
8.91965075e-07
9.47016179e-07
-1.45629285e-06
5.26448131e-07
-1.44849729e-06
-1.10890043e-05
-3.87040036e-07
-4.03704396e-06
7.85042998e-06
-8.43860921e-07
1.29662529e-06
-7.85245716e-06
1.11816304e-06
-1.15674155e-05
2.42813258e-05
-1.68826949e-05
6.71755783e-06
-9.4255449e-05
6.24354163e-05
-1.22293688e-06
1.79878493e-07
-1.61229491e-07
-1.07498028e-08
-2.58662394e-09
-1.02168848e-08
-5.99834827e-09
-3.60332593e-08
4.17950264e-09
-1.35762035e-08
-5.85113e-09
-2.42225172e-09
1.23758971e-09
-4.37579241e-09
-7.77597746e-09
2.03751528e-09
-8.72273919e-09
-5.75269813e-10
2.43101695e-08
-1.47507559e-07
1.61342062e-07
5.45206615e-08
4.17999738e-08
3.92264095e-08
-6.74644511e-09
2.32979985e-08
9.55542625e-09
2.35069253e-08
2.15424205e-08
2.6348152e-08
2.79180978e-08
3.35684653e-08
3.56423729e-08
3.90890655e-08
4.18474172e-08
4.46147581e-08
4.7044874e-08
4.93130834e-08
5.138891e-08
5.32039665e-08
5.47401533e-08
5.60753448e-08
5.71088313e-08
5.78589748e-08
5.83878432e-08
5.86557925e-08
5.87273619e-08
5.85596114e-08
5.82874529e-08
5.77420049e-08
5.71466976e-08
5.65248732e-08
5.5706657e-08
5.53293324e-08
5.34203867e-08
5.30179352e-08
5.09587183e-08
5.09254195e-08
4.87936057e-08
4.79534573e-08
4.59550351e-08
4.44046909e-08
4.27066306e-08
4.15453592e-08
4.03973619e-08
3.86157603e-08
3.72477474e-08
3.51654179e-08
3.36620263e-08
3.16083907e-08
3.04871064e-08
2.78139834e-08
2.64683747e-08
2.33662607e-08
2.31874428e-08
1.74253867e-08
2.33798446e-08
5.12451672e-09
3.31339841e-08
-2.11667359e-08
8.42086751e-08
-1.16582294e-07
2.44498881e-07
-1.03784825e-07
-7.06908911e-07
2.64675692e-06
-3.91208822e-06
2.83006853e-06
-1.06813753e-06
5.82401055e-07
1.9791747e-07
9.61281154e-07
-4.60719784e-08
4.29973807e-07
-5.24310676e-07
9.40919204e-09
-4.59274324e-07
1.21013641e-06
4.46084748e-07
5.88303794e-07
9.22573252e-07
8.65020539e-07
1.1701788e-06
-1.82771315e-06
-3.60660653e-06
-1.73379449e-05
-4.61241879e-05
-2.56778332e-05
-4.99415316e-06
9.11227171e-06
-1.36993946e-06
1.45742925e-06
-5.18788842e-06
1.36882236e-06
-1.05251232e-05
1.71628519e-05
-9.69608589e-06
3.27718612e-05
-9.05061427e-05
8.62791263e-05
-2.53336496e-06
4.64051021e-08
-3.82627971e-07
-5.68170581e-08
-2.27447345e-08
-3.03520392e-08
-2.05384034e-08
-5.82307049e-08
-1.21547842e-09
-1.70203803e-08
-6.1936748e-09
-1.06550196e-09
2.07933687e-09
-1.71950903e-09
-2.63610254e-09
8.93857605e-10
-3.58233769e-09
3.29819645e-09
8.47094239e-09
-1.16716022e-07
1.71271494e-07
4.16570794e-08
7.94367391e-08
1.97383181e-08
-7.59326163e-09
1.63410788e-08
3.41379337e-09
1.92654202e-08
1.51343792e-08
1.83289079e-08
2.08865175e-08
2.63628896e-08
2.77220891e-08
3.08442836e-08
3.31092066e-08
3.54320786e-08
3.73923672e-08
3.92047672e-08
4.08689481e-08
4.22927844e-08
4.34711945e-08
4.45169574e-08
4.52964763e-08
4.58413441e-08
4.62336238e-08
4.64151161e-08
4.64643345e-08
4.6320765e-08
4.61490397e-08
4.57043361e-08
4.53099108e-08
4.51251465e-08
4.46154268e-08
4.42102276e-08
4.24430047e-08
4.24997855e-08
4.05247927e-08
4.13331969e-08
3.9207468e-08
3.88255501e-08
3.69561438e-08
3.5621299e-08
3.41032402e-08
3.33697569e-08
3.26514295e-08
3.10252663e-08
2.99459146e-08
2.79370604e-08
2.66662905e-08
2.47509511e-08
2.40828151e-08
2.14500313e-08
2.04222405e-08
1.7452621e-08
1.78162437e-08
1.20069414e-08
1.92893749e-08
-9.8058636e-11
3.11851724e-08
-2.78307668e-08
9.02310947e-08
-1.31800266e-07
2.68881281e-07
-1.06163031e-07
-7.631096e-07
2.87398059e-06
-4.26503359e-06
3.1058657e-06
-1.22641312e-06
6.2566847e-07
2.2181351e-07
1.00990788e-06
-2.96444965e-07
2.38738158e-07
-7.79952057e-07
-9.27380339e-08
-6.1520361e-07
1.25653132e-06
3.23494304e-07
5.76259016e-07
1.04930165e-06
1.23339447e-06
1.31718161e-06
-7.54877366e-06
-2.30266868e-05
-2.7563858e-05
-1.20319482e-05
-3.31219025e-05
-1.64454558e-05
9.64955759e-06
-1.9214393e-06
1.72672206e-06
-3.62279643e-06
1.81683811e-06
-8.49032006e-06
1.33034033e-05
-7.32386711e-06
2.63688687e-05
7.92552674e-06
-9.25203483e-05
2.60879309e-06
-1.04168945e-06
-7.27073203e-07
-1.11817199e-07
-3.83285308e-08
-7.54727262e-08
-3.00670492e-08
-1.02694371e-07
2.05676266e-08
-5.72079728e-09
2.37549811e-09
7.3111664e-09
7.80623943e-09
-2.68511774e-09
-3.6782604e-09
8.22571629e-10
-2.51372253e-09
5.34053895e-09
-4.90203636e-09
-1.00751858e-07
1.68217283e-07
2.36073256e-08
1.33140352e-07
-8.23802183e-09
-1.24980601e-09
8.70013964e-09
-8.45034043e-10
1.45517647e-08
9.86831314e-09
1.19362447e-08
1.40147979e-08
1.93694403e-08
2.00342539e-08
2.29176972e-08
2.47676602e-08
2.67337963e-08
2.8309845e-08
2.97513801e-08
3.10993102e-08
3.22206615e-08
3.3129276e-08
3.39809915e-08
3.45955502e-08
3.50227382e-08
3.53691126e-08
3.55504503e-08
3.56630811e-08
3.56209519e-08
3.56137322e-08
3.53101487e-08
3.53371614e-08
3.58117245e-08
3.50775007e-08
3.51685134e-08
3.34768526e-08
3.40624603e-08
3.2093696e-08
3.39861801e-08
3.17998338e-08
3.19602713e-08
3.02102163e-08
2.90652651e-08
2.76681682e-08
2.74140087e-08
2.71975976e-08
2.56808046e-08
2.48848418e-08
2.28692395e-08
2.17795557e-08
1.99244152e-08
1.97493039e-08
1.70508412e-08
1.62683622e-08
1.33307108e-08
1.41426556e-08
8.15694371e-09
1.66354328e-08
-4.09383893e-09
3.04064046e-08
-3.40981502e-08
9.8228112e-08
-1.49697205e-07
3.00090576e-07
-1.18224807e-07
-8.32208598e-07
3.1461144e-06
-4.6723429e-06
3.40623344e-06
-1.39727725e-06
7.04792372e-07
3.02597279e-07
1.06301109e-06
-5.83478401e-07
8.68347854e-08
-9.67906261e-07
-1.17576972e-07
-6.9509745e-07
1.42552883e-06