/*--------------------------------*- C++ -*----------------------------------*\
| =========                 |                                                 |
| \\      /  F ield         | OpenFOAM: The Open Source CFD Toolbox           |
|  \\    /   O peration     | Version:  2506                                  |
|   \\  /    A nd           | Website:  www.openfoam.com                      |
|    \\/     M anipulation  |                                                 |
\*---------------------------------------------------------------------------*/
FoamFile
{
    version     2.0;
    format      ascii;
    arch        "LSB;label=32;scalar=64";
    class       volScalarField;
    location    "2644";
    object      I4;
}
// * * * * * * * * * * * * * * * * * * * * * * * * * * * * * * * * * * * * * //

dimensions      [0 0 0 0 0 0 0];

internalField   nonuniform List<scalar> 
15600
(
-1.03556781e-12
2.2944885e-12
-1.29194583e-12
5.58305224e-15
7.95370487e-13
6.60224436e-13
2.08439655e-13
1.96440528e-13
1.42631071e-13
1.19503714e-13
7.82777566e-14
6.10022045e-14
4.84016501e-14
4.17335941e-14
4.53457203e-14
6.63949554e-14
1.33911375e-13
2.22042204e-13
3.41653218e-13
4.46456009e-13
4.92311879e-13
3.77720601e-13
1.85630982e-13
-2.31142874e-14
-2.53723902e-13
-7.07225885e-13
-1.59795769e-13
-1.65845697e-12
-3.5356237e-12
-4.00657879e-12
-6.10367715e-12
-7.27725179e-12
-8.7674e-12
-9.9653693e-12
-1.10814225e-11
-1.19519536e-11
-1.25978061e-11
-1.29740855e-11
-1.31016306e-11
-1.29802456e-11
-1.26298817e-11
-1.20652385e-11
-1.13273146e-11
-1.04554652e-11
-9.48736326e-12
-8.46038145e-12
-7.40967765e-12
-6.36673819e-12
-5.35866376e-12
-4.40736538e-12
-3.53001538e-12
-2.73891996e-12
-2.04172816e-12
-1.44197617e-12
-9.39430386e-13
-5.30806779e-13
-2.09941352e-13
3.12323795e-14
2.02637203e-13
3.15324978e-13
3.79749409e-13
4.06777023e-13
4.04168025e-13
3.80487829e-13
3.41623086e-13
2.94658212e-13
2.4389022e-13
1.93410539e-13
1.45836137e-13
1.03321843e-13
6.7384119e-14
3.89203186e-14
1.83254555e-14
5.52604275e-15
2.10686e-16
1.91664525e-15
1.00427434e-14
2.38212978e-14
4.23335435e-14
6.44334515e-14
8.88326068e-14
1.13741613e-13
1.37538693e-13
1.57227192e-13
1.71637799e-13
1.7555323e-13
1.73859541e-13
1.50608203e-13
1.29999146e-13
7.8935025e-14
5.04433744e-14
1.14326549e-14
8.16383305e-17
4.089229e-15
-1.5823225e-14
-6.91379158e-15
-1.47591298e-15
-4.65279049e-14
-1.88333669e-13
-4.25762579e-13
-6.41958236e-13
-1.78231776e-13
2.01878422e-12
7.51912138e-12
1.44001959e-11
2.16908433e-11
2.92128445e-11
3.7387645e-11
4.81156897e-11
6.4764261e-11
1.03015782e-10
1.69545461e-10
2.75876958e-10
4.81589154e-10
8.0406142e-10
1.10535745e-09
4.54970343e-10
6.1906625e-11
-1.395117e-11
1.79704188e-12
-3.20035878e-10
7.79091967e-10
-6.7670051e-10
-2.62993758e-11
-6.59069521e-11
-6.63342702e-11
-4.09599253e-11
-2.53540445e-11
-2.24208373e-11
-1.56157978e-11
-1.20967715e-11
-9.25714655e-12
-7.50513629e-12
-6.77959934e-12
-7.32631129e-12
-1.35672097e-11
-2.27384983e-11
-3.92066676e-11
-5.93531832e-11
-8.05969837e-11
-8.28691595e-11
-7.67307756e-11
-6.31458364e-11
-3.31416567e-11
3.24596961e-12
-5.34065018e-11
2.36230107e-10
4.91714211e-11
1.57195336e-10
6.45747361e-10
6.48465642e-10
9.10112319e-10
1.04338167e-09
1.19700084e-09
1.30149515e-09
1.38264505e-09
1.42567092e-09
1.4363332e-09
1.41185885e-09
1.35822781e-09
1.28002055e-09
1.18093172e-09
1.06378039e-09
9.35202586e-10
8.00737917e-10
6.65266763e-10
5.33110685e-10
4.07940594e-10
2.92694333e-10
1.8960513e-10
1.00153193e-10
2.51374072e-11
-3.52550457e-11
-8.14101587e-11
-1.14177829e-10
-1.34831422e-10
-1.44926593e-10
-1.4626692e-10
-1.40714643e-10
-1.30051563e-10
-1.15967054e-10
-9.97735965e-11
-8.27785781e-11
-6.59015881e-11
-5.00881533e-11
-3.58942114e-11
-2.38219972e-11
-1.41232688e-11
-6.94427361e-12
-2.31876952e-12
-1.86447162e-13
-3.92100888e-13
-2.70137221e-12
-6.84685736e-12
-1.2550516e-11
-1.95392762e-11
-2.751826e-11
-3.61945106e-11
-4.5219756e-11
-5.42684657e-11
-6.28844656e-11
-7.07222888e-11
-7.70591608e-11
-8.17770066e-11
-8.3585389e-11
-8.36783397e-11
-7.75106371e-11
-7.3267938e-11
-5.72497273e-11
-5.28627187e-11
-2.82003849e-11
-1.27015215e-11
-9.03925638e-12
2.93872231e-12
1.9692734e-12
1.18831764e-11
2.45749484e-11
4.9158475e-11
7.66817179e-11
1.12624295e-10
9.77898687e-11
-2.63934571e-11
-4.43403431e-10
-1.20578986e-09
-2.38949414e-09
-3.38842348e-09
-4.37863951e-09
-5.52607991e-09
-6.94870675e-09
-9.18986016e-09
-1.30866151e-08
-2.11772522e-08
-3.37017853e-08
-5.35399197e-08
-8.61738977e-08
-1.05895771e-07
-7.36071329e-08
8.54941488e-09
3.27892614e-09
2.60628657e-09
8.72418819e-09
4.39123615e-08
-1.80995721e-08
1.8403571e-09
-8.94846739e-11
-1.53223649e-10
-3.90624967e-10
-1.03690597e-10
-1.46386808e-10
-6.46013299e-11
-7.66971412e-11
-5.40738791e-11
-4.18479229e-11
-3.37913323e-11
-2.0169744e-11
-7.56381748e-11
-8.0901339e-11
-1.77708303e-10
-2.7364663e-10
-4.29298483e-10
-3.30201198e-10
-3.62878708e-10
-4.13452094e-10
-1.67471197e-10
2.03711326e-10
-2.05410474e-09
7.27495304e-09
5.71152206e-10
1.16860547e-09
1.04565418e-08
6.91919033e-09
9.68011564e-09
9.53049584e-09
1.01450603e-08
1.00895979e-08
9.99566371e-09
9.60185812e-09
9.04629925e-09
8.2891574e-09
7.45430895e-09
6.50651017e-09
5.44745341e-09
4.36785633e-09
3.32750424e-09
2.35563759e-09
1.47810123e-09
7.12662724e-10
6.95962753e-11
-4.47796055e-10
-8.41547586e-10
-1.11883469e-09
-1.29042844e-09
-1.36938978e-09
-1.37062962e-09
-1.30950427e-09
-1.20165187e-09
-1.06168572e-09
-9.03517696e-10
-7.39168368e-10
-5.78521952e-10
-4.30061445e-10
-2.98965977e-10
-1.90115807e-10
-1.05285975e-10
-4.58421949e-11
-1.11329214e-11
-3.43915439e-18
-1.03690384e-11
-3.94570485e-11
-8.36145677e-11
-1.39700638e-10
-2.04731415e-10
-2.76129284e-10
-3.52067207e-10
-4.29013015e-10
-5.05377507e-10
-5.78388529e-10
-6.46988433e-10
-7.0745488e-10
-7.59772279e-10
-7.97743931e-10
-8.24468441e-10
-8.23865175e-10
-8.14722038e-10
-7.53596379e-10
-7.35394775e-10
-5.36632042e-10
-5.73536114e-10
-1.17687478e-10
-4.66702912e-10
3.39937801e-10
6.05555863e-10
-6.59021302e-10
8.31762026e-10
-3.4823319e-10
2.99083955e-10
5.89097881e-11
1.84601111e-10
-1.60265397e-10
-1.67968393e-10
-1.31578904e-09
-2.6119899e-09
-5.98046766e-09
-9.30698842e-09
-1.77605303e-08
-2.16074805e-08
-2.51075486e-08
-3.04300092e-08
-3.66909697e-08
-4.83057919e-08
-5.81579864e-08
-9.94763698e-08
-1.63565347e-07
-2.42053418e-07
-4.34850301e-07
-6.30239496e-07
-1.08526856e-06
-1.20429229e-07
1.70091332e-09
1.31676232e-07
5.67049819e-08
5.12964834e-07
-1.84590084e-07
5.56938767e-08
8.42595422e-13
1.75293321e-09
-1.56259695e-09
4.64908536e-10
-1.49376528e-10
3.67483616e-10
1.50064256e-11
6.77987331e-11
7.24508495e-11
6.81402138e-11
1.89933046e-10
-1.57295303e-10
3.15633727e-10
2.32593934e-10
4.49632115e-10
2.18048147e-10
1.92926904e-09
1.84011452e-09
1.29454906e-09
3.71694941e-09
7.28833069e-09
-1.31365054e-08
7.90265516e-08
-9.24604151e-09
-2.15367101e-08
3.96283394e-08
1.03791951e-08
2.44432776e-08
2.0023392e-08
2.05402087e-08
1.78108789e-08
1.57827493e-08
1.3351635e-08
1.14173198e-08
9.85779171e-09
8.71095415e-09
7.54017603e-09
6.99598814e-09
7.07098364e-09
7.40376363e-09
7.86001024e-09
8.32223739e-09
8.69306964e-09
8.89932414e-09
8.89320718e-09
8.65359284e-09
8.18108583e-09
7.49640065e-09
6.63741227e-09
5.65361941e-09
4.60314886e-09
3.54722039e-09
2.54704777e-09
1.65829118e-09
9.28567742e-10
3.94575721e-10
8.12688226e-11
3.87620073e-12
1.68943117e-10
5.75245622e-10
1.21188627e-09
2.06415534e-09
3.11052525e-09
4.33629406e-09
5.70636901e-09
7.17912586e-09
8.6782506e-09
1.01479884e-08
1.15990104e-08
1.30002686e-08
1.43430781e-08
1.55974432e-08
1.67437488e-08
1.77360497e-08
1.85666338e-08
1.91750199e-08
1.95682585e-08
1.96296586e-08
1.94621328e-08
1.87563842e-08
1.7941648e-08
1.58682479e-08
1.49449745e-08
1.04736647e-08
1.17492927e-08
2.61559921e-09
1.03167596e-08
1.15980039e-08
-1.3310307e-08
2.51908582e-08
-2.71997495e-09
1.22903992e-08
7.20213225e-09
9.56664477e-09
6.44261181e-09
1.37212961e-08
1.49169368e-08
2.7454241e-08
3.40744195e-08
5.22350013e-08
2.80677653e-08
3.1713464e-08
3.44630006e-08
2.74750326e-08
2.56588489e-08
1.64585265e-08
9.12241385e-08
4.70626143e-08
-8.84596351e-09
1.06539357e-07
-6.38745776e-08
-2.11081499e-07
-3.65187651e-06
-1.41303266e-06
-1.26237404e-06
9.18777892e-07
-3.95870662e-06
1.00472793e-07
-1.5289303e-06
4.18837284e-07
5.54411883e-09
6.03623358e-09
-6.9155727e-09
2.08253435e-09
-7.60912682e-10
1.84521402e-09
1.3029931e-10
3.65554674e-10
3.90976451e-10
3.16451253e-10
9.34322653e-10
-1.05424844e-09
1.32994949e-09
1.01591688e-09
2.48348666e-09
2.40540149e-09
1.32324111e-08
1.71789464e-08
2.02293675e-08
3.95273379e-08
6.12387874e-08
-3.43042955e-08
3.83883112e-07
-7.5606273e-08
-1.02543741e-07
9.45017604e-08
-1.32300289e-08
3.01938861e-09
-2.56723848e-08
-3.43650243e-08
-4.25444441e-08
-4.28297371e-08
-3.9338891e-08
-3.23818257e-08
-2.42077276e-08
-1.60364946e-08
-7.88289891e-09
-2.27306645e-10
5.6826004e-09
9.86222573e-09
1.23770021e-08
1.34055914e-08
1.31982192e-08
1.20427548e-08
1.02378248e-08
8.07425896e-09
5.81968406e-09
3.71051148e-09
1.94675448e-09
6.88912962e-10
5.75883546e-11
1.34229108e-10
9.63210886e-10
2.5548105e-09
4.8895327e-09
7.92523725e-09
1.16007302e-08
1.58531151e-08
2.05909632e-08
2.57357992e-08
3.11526165e-08
3.67851272e-08
4.25128505e-08
4.82367227e-08
5.36136601e-08
5.84766254e-08
6.29245185e-08
6.69049022e-08
7.0444455e-08
7.35044501e-08
7.60485643e-08
7.80155717e-08
7.93910183e-08
8.00434592e-08
7.99963836e-08
7.90508646e-08
7.72639285e-08
7.41799864e-08
7.01791312e-08
6.39907621e-08
5.72012851e-08
4.65089218e-08
4.05505781e-08
1.77887385e-08
1.934862e-08
-2.77191705e-08
8.23804777e-09
3.96170943e-09
-1.70635298e-07
1.30337233e-07
-2.19653056e-08
1.14445191e-07
1.04259258e-07
1.33467521e-07
1.30632198e-07
1.83761948e-07
2.03986477e-07
2.71173507e-07
3.03458523e-07
3.68236414e-07
2.79765276e-07
2.86723177e-07
2.82886268e-07
2.43992345e-07
2.21087795e-07
1.85613091e-07
4.58904891e-07
3.76356541e-07
3.90966491e-07
1.1256491e-06
1.47237954e-06
2.77949218e-06
-3.71315874e-06
-9.15651897e-07
-6.07060356e-06
-8.424964e-07
-1.49650999e-05
-5.69838945e-06
-7.93087836e-06
8.0467908e-07
1.06157542e-07
7.85659712e-09
-2.14213384e-08
4.4208872e-09
-4.32847301e-09
4.79338846e-09
-6.45728793e-10
3.11316164e-10
6.78498897e-10
5.41506012e-10
3.06569446e-09
-4.45488961e-09
3.32484568e-09
1.9716807e-09
7.15262154e-09
8.9816168e-09
4.76232281e-08
6.57369683e-08
7.66754194e-08
1.26832225e-07
1.60392352e-07
-1.21758437e-07
8.61890299e-07
-2.83672444e-07
-2.47342874e-07
3.10962134e-08
-1.4649322e-07
-1.11313764e-07
-1.12516601e-07
-8.64191086e-08
-6.32844103e-08
-4.06736071e-08
-2.31292201e-08
-1.03773025e-08
-2.43745423e-09
2.12993306e-09
4.276749e-09
4.50704939e-09
3.7319629e-09
2.58088679e-09
1.4465143e-09
5.72403051e-10
8.58995208e-11
2.88499092e-11
3.83404201e-10
1.09291213e-09
2.07837223e-09
3.25094373e-09
4.52173969e-09
5.80835371e-09
7.04022354e-09
8.15926336e-09
9.12183472e-09
9.8908399e-09
1.04354048e-08
1.07370553e-08
1.07659919e-08
1.05587428e-08
1.0078019e-08
9.39797501e-09
8.4261427e-09
7.27332785e-09
5.71115366e-09
3.52803318e-09
8.68902829e-10
-1.85856218e-09
-4.34662092e-09
-6.56533948e-09
-8.8467438e-09
-1.12181467e-08
-1.36245199e-08
-1.61023693e-08
-1.85585414e-08
-2.11040642e-08
-2.35743983e-08
-2.62161806e-08
-2.87860957e-08
-3.19823532e-08
-3.49950395e-08
-4.01058262e-08
-4.44816381e-08
-5.49957079e-08
-5.38004196e-08
-8.47792789e-08
-7.09774788e-08
-1.6451055e-07
-9.20473414e-08
-1.22200057e-07
-6.6455724e-07
1.36671244e-07
-3.19227504e-07
6.77920868e-08
4.09352018e-08
1.22916202e-07
1.18713144e-07
2.29618691e-07
2.41496753e-07
3.42739993e-07
3.67013835e-07
4.70498725e-07
3.32049384e-07
3.9557786e-07
4.42083747e-07
4.33807831e-07
4.54542823e-07
4.48817375e-07
1.00802717e-06
9.22862973e-07
1.10869684e-06
2.42618567e-06
2.89357555e-06
5.24552164e-06
-9.88626449e-07
4.91651926e-06
-4.85304076e-06
-1.70243504e-06
-2.36139424e-06
1.15668507e-06
-1.54532875e-05
-1.30005388e-06
4.67397332e-07
1.36207831e-10
-3.91144605e-08
9.14841402e-09
-1.12817419e-08
1.18691579e-08
-1.62122836e-09
7.73120255e-10
2.18959319e-09
1.82740588e-09
9.2468203e-09
-1.12044139e-08
8.81497422e-09
6.62973527e-09
2.0472434e-08
2.54787792e-08
1.01063761e-07
1.18772136e-07
1.04248516e-07
1.47098079e-07
1.49650316e-07
-2.86920098e-07
1.02531866e-06
-5.0997954e-07
-3.28494189e-07
-5.27551939e-08
-1.09254157e-07
-3.88975053e-08
-1.7686374e-08
-1.88917592e-09
3.05449329e-09
3.86600743e-09
2.69454226e-09
1.28162889e-09
3.24602989e-10
9.28072591e-13
1.99703198e-10
6.78328524e-10
1.15284019e-09
1.36411619e-09
1.09908373e-09
2.010597e-10
-1.43264597e-09
-3.85641004e-09
-7.08418009e-09
-1.10942799e-08
-1.58378779e-08
-2.12446652e-08
-2.72255219e-08
-3.3680293e-08
-4.04987891e-08
-4.75732487e-08
-5.47965297e-08
-6.20856018e-08
-6.93757997e-08
-7.66009682e-08
-8.37446308e-08
-9.06659623e-08
-9.7376837e-08
-1.03677423e-07
-1.09701665e-07
-1.15374722e-07
-1.20979563e-07
-1.2615576e-07
-1.30144427e-07
-1.3274613e-07
-1.34483666e-07
-1.35473463e-07
-1.35831695e-07
-1.35650277e-07
-1.34860584e-07
-1.33524198e-07
-1.31484915e-07
-1.28814593e-07
-1.25211474e-07
-1.20849022e-07
-1.15190042e-07
-1.0876848e-07
-1.00103227e-07
-9.14325489e-08
-7.81991244e-08
-7.09224361e-08
-4.43249412e-08
-4.98166293e-08
5.89679967e-09
-7.08871748e-08
5.74840945e-08
9.67598186e-08
-6.60430161e-07
4.25960364e-07
-5.71757396e-07
-1.22866093e-07
-2.74393302e-07
-2.14028378e-07
-2.7380751e-07
-1.77559473e-07
-2.25007926e-07
-1.34284053e-07
-1.26144114e-07
1.38807832e-08
-1.05514586e-07
2.94640442e-08
1.34283896e-07
1.87825596e-07
2.92921722e-07
3.68184639e-07
1.05353108e-06
8.93152904e-07
9.65497021e-07
1.99428947e-06
1.84495656e-06
3.84566625e-06
-8.85760388e-07
5.12242761e-06
2.58552055e-06
1.77228229e-05
2.22992864e-05
2.40822463e-05
-1.00399098e-05
-3.48817405e-06
-5.832427e-07
1.19029446e-07
-3.79709061e-08
1.53522835e-08
-1.98924034e-08
2.47329497e-08
-5.81730673e-10
3.5725937e-09
6.78488802e-09
4.61493526e-09
2.00649303e-08
-2.27466174e-08
1.63896248e-08
1.22991472e-08
3.01322992e-08
2.18256244e-08
9.52618945e-08
7.12482022e-08
3.50955246e-09
1.34153412e-08
-5.84952445e-09
-3.94098075e-07
6.65498668e-07
-4.54385637e-07
-1.57808999e-07
7.29371207e-09
-3.35915114e-09
5.7497494e-09
2.0502486e-09
2.32314149e-10
1.82693792e-10
1.30842784e-09
2.59566582e-09
3.32117348e-09
2.94075501e-09
1.34561715e-09
-1.66754392e-09
-5.87112922e-09
-1.10959639e-08
-1.71509784e-08
-2.38480069e-08
-3.09978998e-08
-3.8431727e-08
-4.60022967e-08
-5.35859056e-08
-6.10734878e-08
-6.83751927e-08
-7.54174695e-08
-8.21358889e-08
-8.84809562e-08
-9.44093101e-08
-9.98969135e-08
-1.04922452e-07
-1.094966e-07
-1.13641624e-07
-1.17358202e-07
-1.2071907e-07
-1.23607395e-07
-1.26137219e-07
-1.28116615e-07
-1.29854224e-07
-1.31216869e-07
-1.32147424e-07
-1.31980136e-07
-1.30835655e-07
-1.29051123e-07
-1.26858783e-07
-1.24301494e-07
-1.21343078e-07
-1.18091666e-07
-1.14474525e-07
-1.10586171e-07
-1.06263605e-07
-1.01596227e-07
-9.62332311e-08
-9.03476316e-08
-8.32752609e-08
-7.54869183e-08
-6.51555017e-08
-5.44845844e-08
-3.75612476e-08
-2.62848912e-08
8.15126929e-09
1.49094258e-08
9.51796774e-08
5.25476737e-08
2.37883297e-07
4.21019498e-07
-2.53251757e-07
9.55955314e-07
-3.90507155e-07
5.86730055e-09
-2.84959284e-07
-2.9548138e-07
-4.3795634e-07
-4.00556829e-07
-5.19657253e-07
-4.5863418e-07
-4.74394849e-07
-3.39145716e-07
-4.65970396e-07
-3.47323065e-07
-2.93353145e-07
-3.08154521e-07
-2.88641402e-07
-3.06916066e-07
2.2180182e-07
-2.88369587e-08
-4.83440616e-08
7.69493823e-07
6.00184161e-07
2.25532426e-06
-9.07025931e-07
2.06962733e-06
-1.72136856e-06
2.87947793e-05
1.37942798e-05
2.76233388e-05
-2.60728781e-07
1.32448061e-06
-5.52649964e-06
1.20252956e-06
-7.09771837e-09
1.59101529e-08
-2.61631392e-08
3.50999051e-08
4.22404585e-10
5.42866755e-09
1.05731048e-08
3.38363588e-09
2.81899818e-08
-4.16154532e-08
1.07811853e-08
-6.56975598e-09
-6.42748656e-09
-4.34614237e-08
-4.91591153e-09
-5.15596951e-08
-1.21060993e-07
-1.17366242e-07
-1.3125778e-07
-3.42579748e-07
2.64317895e-07
-1.83431421e-07
-1.7570524e-08
4.93124669e-09
3.40388412e-11
1.42197981e-09
3.8308294e-09
5.76896441e-09
4.81261287e-09
1.9660945e-09
-2.99055928e-09
-8.88035917e-09
-1.5494805e-08
-2.26633148e-08
-2.98074319e-08
-3.66124747e-08
-4.29905528e-08
-4.88574355e-08
-5.41903657e-08
-5.89718979e-08
-6.3209286e-08
-6.69238969e-08
-7.01495633e-08
-7.29152976e-08
-7.52560739e-08
-7.7209279e-08
-7.88051421e-08
-8.00782778e-08
-8.10545227e-08
-8.17708739e-08
-8.22477033e-08
-8.25308436e-08
-8.26620317e-08
-8.26394873e-08
-8.25656123e-08
-8.2293166e-08
-8.20053265e-08
-8.14911034e-08
-8.11124078e-08
-8.04445025e-08
-7.94115174e-08
-7.78729916e-08
-7.62495649e-08
-7.45672761e-08
-7.28565085e-08
-7.1098369e-08
-6.92177415e-08
-6.73044871e-08
-6.52548642e-08
-6.31846175e-08
-6.09321217e-08
-5.86379848e-08
-5.59580915e-08
-5.31668471e-08
-4.96404022e-08
-4.60376078e-08
-4.05844142e-08
-3.60079449e-08
-2.58826269e-08
-2.34630721e-08
4.51548533e-10
-6.21672767e-09
5.97961846e-08
3.45105507e-09
1.64682877e-07
3.57322059e-07
-2.94980261e-07
9.83387605e-07
-3.65123169e-07
8.89351531e-08
-2.23777615e-07
-2.41530513e-07
-4.05687418e-07
-3.77356e-07
-5.13615766e-07
-4.46755593e-07
-4.67012856e-07
-3.45184538e-07
-4.86099594e-07
-3.91839341e-07
-3.78891535e-07
-4.40491861e-07
-4.87389422e-07
-5.70804096e-07
-1.69603038e-07
-3.67637528e-07
-3.10936006e-07
4.32587949e-07
2.21544435e-07
1.37494671e-06
-9.04115319e-07
1.68004825e-06
-6.57672605e-06
1.14031776e-05
-8.19321296e-06
1.20225339e-05
-1.42044338e-06
9.70395968e-06
-1.14062215e-05
2.27670165e-06
-1.18229254e-08
7.24299617e-09
-1.98170037e-08
2.99057235e-08
-6.47657453e-09
-5.61010793e-09
-1.00581416e-09
-1.5881197e-08
1.42796252e-08
-7.56061678e-08
-2.77866772e-08
-5.43360267e-08
-6.05434861e-08
-8.85568486e-08
-5.92424226e-08
-7.72687267e-08
-1.02548575e-07
-8.61055352e-08
-7.944792e-08
-1.35366356e-07
9.11517231e-08
-2.51525241e-08
-2.86096992e-11
3.01700746e-09
2.56243119e-09
7.44990166e-09
7.20519237e-10
-3.65598395e-09
-1.16178052e-08
-1.82823438e-08
-2.48268249e-08
-3.03269295e-08
-3.50997431e-08
-3.921728e-08
-4.24997985e-08
-4.50149963e-08
-4.6943022e-08
-4.83576974e-08
-4.93715876e-08
-5.00504316e-08
-5.04543958e-08
-5.06346772e-08
-5.06411666e-08
-5.05023341e-08
-5.02478826e-08
-4.99061201e-08
-4.94923463e-08
-4.90271137e-08
-4.85180404e-08
-4.79877463e-08
-4.7433383e-08
-4.68850843e-08
-4.63645612e-08
-4.58366081e-08
-4.54143331e-08
-4.49002407e-08
-4.45589921e-08
-4.40679222e-08
-4.38145926e-08
-4.32165024e-08
-4.25840317e-08
-4.18511293e-08
-4.12459553e-08
-4.06467045e-08
-4.0082384e-08
-3.95198335e-08
-3.88833544e-08
-3.82642549e-08
-3.75259683e-08
-3.68100838e-08
-3.59440685e-08
-3.51174512e-08
-3.39742879e-08
-3.28934131e-08
-3.1267601e-08
-2.99423856e-08
-2.71518062e-08
-2.61742087e-08
-2.00097023e-08
-2.34162257e-08
-6.67271928e-09
-2.44675296e-08
2.75809572e-08
-4.75902716e-08
7.20335632e-08
2.16112318e-07
-4.78489382e-07
8.16894904e-07
-4.57717226e-07
9.46003047e-08
-1.89052298e-07
-1.75098748e-07
-3.21820019e-07
-2.6497201e-07
-3.81036583e-07
-2.85433258e-07
-3.03538943e-07
-1.98163966e-07
-3.5043544e-07
-2.65941082e-07
-2.59477924e-07
-3.09708571e-07
-3.39306033e-07
-3.91218021e-07
-4.72829141e-08
-2.07849293e-07
-1.68759808e-07
3.7667582e-07
-3.42404983e-08
8.23729558e-07
-1.23923063e-06
1.27816554e-06
-3.95835953e-06
-9.26307173e-07
-1.33289583e-05
9.28381168e-07
-9.22142757e-06
1.4057983e-05
-6.56129773e-06
-3.11045396e-06
-4.35559381e-08
1.01449647e-09
-3.59849187e-09
1.50223183e-08
-1.23268236e-08
-2.35739901e-08
-2.72683685e-08
-5.00788137e-08
-2.00325822e-08
-9.75062581e-08
-5.07864778e-08
-5.60837547e-08
-4.60746114e-08
-4.76129361e-08
-2.52180305e-08
-2.40298966e-08
-2.64179201e-08
-1.61823014e-08
-1.10173387e-08
-1.63906337e-08
9.88215786e-09
-3.36156055e-10
-1.88127733e-09
9.33132747e-09
-8.79781599e-09
-1.77017834e-09
-1.5075498e-08
-1.7286563e-08
-2.35887077e-08
-2.64286209e-08
-2.87491105e-08
-2.97699183e-08
-3.15121779e-08
-3.22363998e-08
-3.27061509e-08
-3.28905913e-08
-3.29513755e-08
-3.28947002e-08
-3.27904451e-08
-3.26514754e-08
-3.24878444e-08
-3.23058308e-08
-3.21191952e-08
-3.19190537e-08
-3.1706604e-08
-3.14876174e-08
-3.12555359e-08
-3.10159023e-08
-3.07607815e-08
-3.05055065e-08
-3.02322313e-08
-2.99691652e-08
-2.9731471e-08
-2.94616862e-08
-2.93030354e-08
-2.90357216e-08
-2.89457775e-08
-2.86432081e-08
-2.85444992e-08
-2.81071828e-08
-2.78481114e-08
-2.74874172e-08
-2.7211887e-08
-2.68922613e-08
-2.66065053e-08
-2.63146909e-08
-2.59346675e-08
-2.55833221e-08
-2.50927535e-08
-2.46419003e-08
-2.4034758e-08
-2.35066749e-08
-2.26562999e-08
-2.19570764e-08
-2.07619699e-08
-2.00565289e-08
-1.7955481e-08
-1.82037519e-08
-1.29760928e-08
-1.87327833e-08
-3.72845361e-09
-2.57666226e-08
2.22758722e-08
-6.0026931e-08
3.85909549e-08
1.61471769e-07
-5.46204247e-07
7.5078126e-07
-5.00152799e-07
1.17692788e-07
-1.5067885e-07
-1.10710133e-07
-2.42342144e-07
-1.5655838e-07
-2.52200506e-07
-1.34038329e-07
-1.59299744e-07
-7.37661888e-08
-2.34900122e-07
-1.56703191e-07
-1.53388772e-07
-1.88968886e-07
-1.94688401e-07
-2.11214001e-07
8.20848453e-08
-7.70604798e-08
-9.54421144e-08
2.88626502e-07
-2.63457055e-07
6.40940994e-07
-1.46053454e-06
6.9016487e-07
-1.57389763e-06
1.19128548e-06
-6.96625106e-06
3.9752201e-07
-1.37841225e-05
1.31081896e-05
9.34560727e-06
-1.56720613e-05
-1.43031892e-08
5.91054431e-08
-1.59940627e-09
1.93011405e-09
-3.89210601e-09
-1.72388772e-08
-2.70881957e-08
-4.91317924e-08
-2.11801057e-08
-5.94148987e-08
-2.14175455e-08
-1.59098068e-08
-8.6233393e-09
-6.94256911e-09
-1.44976008e-09
-9.10492407e-10
-9.02817659e-10
-1.39750146e-10
-1.16782888e-11
-1.98656371e-10
1.00829458e-08
-2.31805047e-08
-1.51593153e-08
1.41905427e-09
-2.31181326e-08
-5.92658457e-09
-1.89999548e-08
-1.57478603e-08
-1.9800683e-08
-1.98369902e-08
-2.06532404e-08
-1.99237625e-08
-2.12915478e-08
-2.14802125e-08
-2.1861768e-08
-2.21354093e-08
-2.24360418e-08
-2.27018237e-08
-2.29740894e-08
-2.32371946e-08
-2.34780194e-08
-2.36874756e-08
-2.3872973e-08
-2.40144273e-08
-2.41097669e-08
-2.41652134e-08
-2.41718098e-08
-2.4137992e-08
-2.40550875e-08
-2.39451951e-08
-2.37850907e-08
-2.36130343e-08
-2.34433701e-08
-2.32017107e-08
-2.31029967e-08
-2.28133837e-08
-2.27053019e-08
-2.23140838e-08
-2.21664155e-08
-2.17030303e-08
-2.14731671e-08
-2.10574212e-08
-2.07109676e-08
-2.03094893e-08
-1.99662254e-08
-1.96209972e-08
-1.91717994e-08
-1.87771352e-08
-1.82303572e-08
-1.77594308e-08
-1.71337965e-08
-1.66401726e-08
-1.5800892e-08
-1.51920321e-08
-1.40935671e-08
-1.36196646e-08
-1.16957291e-08
-1.25185267e-08
-7.33190286e-09
-1.40644693e-08
7.86057033e-10
-2.35453669e-08
2.53528271e-08
-5.97915923e-08
3.06836209e-08
1.53069747e-07
-5.50700585e-07
7.53845073e-07
-5.10165968e-07
1.48825401e-07
-1.20323472e-07
-6.56147726e-08
-1.91750443e-07
-8.18877644e-08
-1.63808777e-07
-3.37329153e-08
-7.26169144e-08
-4.61120288e-09
-1.6897581e-07
-9.48673187e-08
-9.63394847e-08
-1.24730145e-07
-1.18600776e-07
-1.1822333e-07
1.20418901e-07
-4.49093326e-08
-7.69455859e-08
2.84015983e-07
-4.00652107e-07
6.60496799e-07
-1.55724206e-06
4.37345761e-07
-1.22877245e-06
4.15278551e-06
-1.87461918e-06
3.42807403e-06
-1.28426846e-05
9.39752258e-06
8.83847651e-06
-7.10334127e-06
-2.27711319e-06
2.31275235e-07
-1.76667344e-08
6.60262996e-09
1.06530985e-10
-1.34628997e-09
-3.26866206e-09
-1.31728721e-08
2.69168636e-09
-1.17842716e-08
-1.16409095e-10
-2.1839912e-10
-2.68708854e-11
-4.23707472e-16
8.08590813e-11
2.52336555e-10
-4.62622972e-10
6.19702379e-10
5.82977359e-10
-7.2147534e-09
6.13239816e-08
-7.14699074e-08
-3.0152e-08
-9.40869041e-09
-2.5348011e-08
-1.19793588e-09
-1.45188763e-08
-8.76230593e-09
-1.32173937e-08
-1.25085627e-08
-1.39159956e-08
-1.36384186e-08
-1.52297739e-08
-1.56552179e-08
-1.64264622e-08
-1.7018567e-08
-1.7610798e-08
-1.81163237e-08
-1.85854173e-08
-1.90058448e-08
-1.93639662e-08
-1.96547955e-08
-1.98953178e-08
-2.00639619e-08
-2.01642512e-08
-2.02096431e-08
-2.01922479e-08
-2.01265994e-08
-2.00042212e-08
-1.98556889e-08
-1.96498783e-08
-1.94369606e-08
-1.92258449e-08
-1.8940905e-08
-1.88642705e-08
-1.84306619e-08
-1.82940014e-08
-1.77858115e-08
-1.76775569e-08
-1.71627832e-08
-1.69287166e-08
-1.64423237e-08
-1.60492439e-08
-1.56085956e-08
-1.52665372e-08
-1.49282633e-08
-1.44587942e-08
-1.40746589e-08
-1.35166856e-08
-1.30756935e-08
-1.24761043e-08
-1.20694726e-08
-1.12692738e-08
-1.07756376e-08
-9.77638249e-09
-9.52250039e-09
-7.71639313e-09
-9.02558902e-09
-3.746902e-09
-1.10703682e-08
3.89701521e-09
-2.29261466e-08
2.84735319e-08
-6.00901552e-08
2.71848473e-08
1.54077275e-07
-5.50959825e-07
7.72170579e-07
-5.2068033e-07
1.72796703e-07
-1.04422558e-07
-4.16514576e-08
-1.66716362e-07
-3.18358056e-08
-1.04576114e-07
2.87998492e-08
-2.53804104e-08
2.96474281e-08
-1.31986969e-07
-5.98045183e-08
-6.5118254e-08
-8.84783919e-08
-7.64238544e-08
-7.42178849e-08
1.02856846e-07
-3.40012675e-08
9.20547649e-08
7.98629078e-07
4.25684025e-08
6.63645468e-07
-1.6508877e-06
4.43545604e-07
-1.38886923e-06
3.99837494e-06
-5.00224049e-07
4.96538227e-06
-9.63552026e-06
5.57157246e-06
-2.12816931e-06
3.15080342e-05
-2.01083693e-05
4.62486444e-07
-5.67000223e-08
4.98147968e-08
3.02269156e-09
9.90235867e-15
1.28551547e-09
8.37460844e-10
3.41302858e-09
-1.48718497e-10
9.1009434e-12
2.02706696e-10
5.22501408e-10
-7.22677247e-10
3.19370124e-09
4.63466053e-09
-1.02184341e-09
4.10214983e-09
2.90891579e-10
-1.52907585e-08
1.14731938e-07
-1.21213377e-07
-3.37203809e-08
-2.29521795e-08
-1.97333893e-08
3.149791e-09
-1.03208058e-08
-4.05526618e-09
-9.6228971e-09
-8.53180089e-09
-1.01115312e-08
-1.03927622e-08
-1.21364505e-08
-1.25319256e-08
-1.33839041e-08
-1.39734526e-08
-1.45509867e-08
-1.50107433e-08
-1.54182377e-08
-1.57698841e-08
-1.60501422e-08
-1.62586164e-08
-1.64222284e-08
-1.65140157e-08
-1.65417164e-08
-1.65245824e-08
-1.64521946e-08
-1.63432549e-08
-1.61862873e-08
-1.60194743e-08
-1.57979163e-08
-1.55851866e-08
-1.53892641e-08
-1.51633871e-08
-1.50766464e-08
-1.45833342e-08
-1.45058236e-08
-1.39786423e-08
-1.40150208e-08
-1.34832748e-08
-1.33151887e-08
-1.28284189e-08
-1.24638065e-08
-1.20528275e-08
-1.17907208e-08
-1.15338004e-08
-1.10969168e-08
-1.07770755e-08
-1.02441857e-08
-9.86960277e-09
-9.3216753e-09
-9.03721813e-09
-8.28021361e-09
-7.904538e-09
-6.98994168e-09
-6.93532352e-09
-5.19899971e-09
-6.93799437e-09
-1.50698579e-09
-9.61152533e-09
6.0220773e-09
-2.33314726e-08
3.11696388e-08
-6.2376156e-08
2.47988072e-08
1.56495302e-07
-5.60233198e-07
7.93670371e-07
-5.37747996e-07
1.90536947e-07
-9.90280431e-08
-3.28089548e-08
-1.56505123e-07
7.19324796e-09
-6.1837197e-08
6.72018617e-08
-1.05898845e-09
4.56130741e-08
-1.0817282e-07
-3.66125403e-08
-4.45743352e-08
-6.40897837e-08
-5.39567361e-08
-6.4196192e-08
8.69430324e-08
1.53206404e-07
7.2782973e-07
2.29703775e-06
2.20855501e-06
7.52704324e-07
-1.766544e-06
5.49365749e-07
-1.49839742e-06
2.96748796e-06
-6.67954908e-07
4.80355404e-06
-7.07632408e-06
3.15992686e-06
-1.02908167e-05
3.01441662e-05
-2.83654595e-05
9.65981086e-07
-1.56145126e-08
1.20034869e-07
1.70120106e-08
4.36565407e-09
1.53996443e-09
1.92844715e-10
6.67083639e-10
4.84030039e-11
2.01623594e-09
1.81204779e-09
7.30723758e-10
-3.57104999e-09
7.09296235e-09
1.20031602e-08
-2.68186619e-09
7.62868687e-09
-5.73510029e-09
-1.30143276e-08
1.48856306e-07
-1.53576977e-07
-2.74797291e-08
-4.49889901e-08
-1.01236468e-08
3.60093517e-09
-7.33589578e-09
-1.46624838e-09
-7.97432983e-09
-6.05651236e-09
-7.10323151e-09
-7.84694201e-09
-9.61309674e-09
-9.82415975e-09
-1.06368891e-08
-1.11269361e-08
-1.1621667e-08
-1.19890572e-08
-1.23074363e-08
-1.2581839e-08
-1.27885558e-08
-1.29307467e-08
-1.30452259e-08
-1.30948492e-08
-1.30910551e-08
-1.30585503e-08
-1.29814574e-08
-1.28822219e-08
-1.27443726e-08
-1.26138894e-08
-1.24251095e-08
-1.22682395e-08
-1.21878002e-08
-1.20394258e-08
-1.19358551e-08
-1.14740734e-08
-1.15094241e-08
-1.0997529e-08
-1.12480136e-08
-1.07087026e-08
-1.06521018e-08
-1.01907734e-08
-9.87468336e-09
-9.50379918e-09
-9.34978873e-09
-9.20232518e-09
-8.80050582e-09
-8.55271222e-09
-8.0341267e-09
-7.71879464e-09
-7.20652665e-09
-7.04787792e-09
-6.30363889e-09
-6.01908845e-09
-5.15028749e-09
-5.25307282e-09
-3.52786273e-09
-5.62910277e-09
2.83042959e-11
-8.8574794e-09
7.72863142e-09
-2.43072856e-08
3.41008418e-08
-6.60133148e-08
2.42564186e-08
1.6072866e-07
-5.772031e-07
8.20391197e-07
-5.58635847e-07
2.0645618e-07
-1.00084244e-07
-3.44597803e-08
-1.52902121e-07
4.24529408e-08
-3.08926111e-08
8.78971145e-08
8.94853282e-09
5.10512494e-08
-9.14926166e-08
-2.10787823e-08
-3.36916798e-08
-5.44440318e-08
-5.52954418e-08
-4.98004509e-08
2.38251892e-07
6.38849975e-07
7.67807124e-07
4.20068793e-07
2.24665447e-06
2.34120589e-06
-1.83603254e-06
6.83199113e-07
-1.60683162e-06
2.31815887e-06
-9.76059206e-07
4.14333347e-06
-5.71448603e-06
2.34596701e-06
-8.23590121e-06
-2.6089477e-06
3.16838326e-05
-9.52214424e-07
3.73509569e-07
2.30653154e-07
3.37172829e-08
9.22297194e-09
1.1887998e-08
3.19764198e-09
1.05916997e-08
-2.88280754e-09
1.28616065e-09
-9.03110178e-10
-4.91690905e-09
-1.012613e-08
7.5151764e-09
2.04859171e-08
-5.25789244e-09
1.17914229e-08
-1.70518094e-08
1.08318603e-08
1.52507482e-07
-1.61753677e-07
-1.61806428e-08
-7.72741216e-08
4.30305936e-09
6.02194224e-10
-3.96068497e-09
3.67575112e-10
-6.09390797e-09
-3.99230527e-09
-4.67310933e-09
-5.31545211e-09
-7.12525894e-09
-7.15734081e-09
-7.96183627e-09
-8.37919029e-09
-8.82074319e-09
-9.12407967e-09
-9.38115514e-09
-9.60920691e-09
-9.77095092e-09
-9.87503487e-09
-9.97062391e-09
-1.00062476e-08
-9.99855088e-09
-9.97897289e-09
-9.92404479e-09
-9.86105339e-09
-9.76635999e-09
-9.69250094e-09
-9.55038028e-09
-9.51157621e-09
-9.60815377e-09
-9.39666793e-09
-9.4204695e-09
-8.97506972e-09
-9.14369195e-09
-8.62896742e-09
-9.15867404e-09
-8.59721037e-09
-8.67636194e-09
-8.24068284e-09
-7.96849083e-09
-7.62381111e-09
-7.59302332e-09
-7.57599598e-09
-7.19887041e-09
-7.0233533e-09
-6.49906871e-09