/*--------------------------------*- C++ -*----------------------------------*\
| =========                 |                                                 |
| \\      /  F ield         | OpenFOAM: The Open Source CFD Toolbox           |
|  \\    /   O peration     | Version:  2506                                  |
|   \\  /    A nd           | Website:  www.openfoam.com                      |
|    \\/     M anipulation  |                                                 |
\*---------------------------------------------------------------------------*/
FoamFile
{
    version     2.0;
    format      ascii;
    arch        "LSB;label=32;scalar=64";
    class       volScalarField;
    location    "2644";
    object      I5;
}
// * * * * * * * * * * * * * * * * * * * * * * * * * * * * * * * * * * * * * //

dimensions      [0 0 0 0 0 0 0];

internalField   nonuniform List<scalar> 
15600
(
-1.0732505e-12
-1.53451271e-12
-3.5019141e-13
-1.70077061e-18
-2.30866312e-14
-2.72776512e-14
-1.04552699e-14
-7.66953897e-15
-5.91972614e-15
-4.81059253e-15
-3.99965743e-15
-3.99611114e-15
-4.57369468e-15
-6.18391791e-15
-9.74114778e-15
-1.69207894e-14
-2.91411731e-14
-4.74256331e-14
-7.26828785e-14
-1.02478799e-13
-1.31178705e-13
-1.56929622e-13
-1.81060393e-13
-1.98406198e-13
-2.07775128e-13
-2.17171245e-13
-2.17994015e-13
-3.76381022e-13
-1.14168938e-12
-2.66570404e-12
-4.66717525e-12
-7.15770343e-12
-9.91284505e-12
-1.281002e-11
-1.56876867e-11
-1.84145075e-11
-2.08607156e-11
-2.29225844e-11
-2.45225605e-11
-2.56139381e-11
-2.61770552e-11
-2.62203959e-11
-2.5776535e-11
-2.48968889e-11
-2.36469979e-11
-2.21011033e-11
-2.03368546e-11
-1.84307816e-11
-1.64546554e-11
-1.44727868e-11
-1.25403144e-11
-1.07023146e-11
-8.99351506e-12
-7.43853126e-12
-6.05250651e-12
-4.84200844e-12
-3.80609083e-12
-2.93749208e-12
-2.22393793e-12
-1.64959481e-12
-1.19669605e-12
-8.47020693e-13
-5.83143391e-13
-3.89043738e-13
-2.50358604e-13
-1.54452629e-13
-9.05602685e-14
-4.98472885e-14
-2.52957829e-14
-1.15155109e-14
-4.49996607e-15
-1.3943446e-15
-2.89315825e-16
-2.48837191e-17
-4.23366843e-20
-2.72353062e-18
-6.98161742e-17
-3.75655826e-16
-1.14115338e-15
-2.5566718e-15
-4.71484008e-15
-7.54867047e-15
-1.07907438e-14
-1.39419191e-14
-1.63403036e-14
-1.72398081e-14
-1.62064115e-14
-1.30615247e-14
-8.70199248e-15
-4.1365739e-15
-1.20441527e-15
-7.31178422e-17
-4.9832512e-18
-1.1631742e-16
-5.20455869e-17
-5.37745148e-18
-1.29563173e-19
-9.66794609e-17
-1.40769348e-15
-9.88807863e-15
-4.87253937e-14
-1.8727383e-13
-5.77592995e-13
-1.44796154e-12
-2.83188577e-12
-4.41664616e-12
-6.04357945e-12
-7.73033684e-12
-9.66904523e-12
-1.23961123e-11
-1.80132811e-11
-3.00062865e-11
-5.33240455e-11
-1.04736049e-10
-2.188711e-10
-4.19488849e-10
-3.89672999e-10
-1.19523379e-10
-1.2572453e-11
-1.41102394e-12
-2.6980454e-09
-2.72545756e-09
-8.53317605e-10
-4.19124805e-12
-6.27074845e-12
-1.86568616e-11
-8.77519212e-12
-6.57868817e-12
-5.24960845e-12
-4.41768355e-12
-3.85817338e-12
-3.99542567e-12
-4.7292651e-12
-6.53705224e-12
-1.03475154e-11
-1.76734163e-11
-2.97019471e-11
-4.72829084e-11
-7.10217414e-11
-9.89980224e-11
-1.27720868e-10
-1.56909915e-10
-1.87608662e-10
-2.16364811e-10
-2.43102458e-10
-2.74317619e-10
-3.30581259e-10
-5.85049641e-10
-1.39347017e-09
-2.73407993e-09
-4.31876714e-09
-6.09424821e-09
-7.90242092e-09
-9.65686934e-09
-1.12645841e-08
-1.26577719e-08
-1.37797414e-08
-1.45946442e-08
-1.50850401e-08
-1.52514513e-08
-1.51089146e-08
-1.46878659e-08
-1.40213467e-08
-1.31580298e-08
-1.214728e-08
-1.10367278e-08
-9.87156088e-09
-8.69269479e-09
-7.53552466e-09
-6.4292145e-09
-5.39646414e-09
-4.45363593e-09
-3.6111359e-09
-2.87398944e-09
-2.24254566e-09
-1.71324541e-09
-1.27941837e-09
-9.32090045e-10
-6.60785807e-10
-4.54328498e-10
-3.0159015e-10
-1.92093597e-10
-1.16421524e-10
-6.63797209e-11
-3.50360121e-11
-1.67039536e-11
-6.91122176e-12
-2.31048536e-12
-5.39131463e-13
-5.99764207e-14
-5.7781438e-16
-1.99085491e-15
-7.63632236e-14
-4.76234609e-13
-1.58345486e-12
-3.82059493e-12
-7.57968166e-12
-1.31595092e-11
-2.07101309e-11
-3.01778439e-11
-4.12518098e-11
-5.33008905e-11
-6.53470755e-11
-7.60205808e-11
-8.37032247e-11
-8.65973784e-11
-8.33710751e-11
-7.32165058e-11
-5.75291701e-11
-3.80445582e-11
-2.02130697e-11
-6.66736348e-12
-7.27306273e-13
-1.66549338e-13
-2.66769153e-13
-6.69043931e-13
-2.12645803e-12
-6.12579353e-12
-1.62492491e-11
-4.36476684e-11
-1.16444034e-10
-2.96044289e-10
-6.87433215e-10
-1.42175839e-09
-2.49722117e-09
-3.71138648e-09
-4.93465638e-09
-6.16623677e-09
-7.52065541e-09
-9.31452437e-09
-1.27232092e-08
-1.96908302e-08
-3.28898421e-08
-6.00799232e-08
-1.16762556e-07
-2.18684944e-07
-2.4903028e-07
-1.27350537e-07
-2.70641782e-08
-5.08498947e-09
-4.13027424e-07
-3.19547202e-07
-1.20014692e-07
-3.8516884e-09
-4.26798378e-11
-7.65900792e-10
-4.75961865e-10
-3.6911808e-10
-3.06841491e-10
-2.69566542e-10
-2.48984159e-10
-2.68748464e-10
-3.29975807e-10
-4.66718687e-10
-7.41445442e-10
-1.24252478e-09
-2.03247895e-09
-3.15599721e-09
-4.63856807e-09
-6.39591323e-09
-8.33521512e-09
-1.05412606e-08
-1.31087836e-08
-1.59699896e-08
-1.92554195e-08
-2.35711317e-08
-3.23338074e-08
-5.44660005e-08
-1.02097018e-07
-1.68015854e-07
-2.36306126e-07
-3.02583492e-07
-3.62017855e-07
-4.12181687e-07
-4.51197771e-07
-4.78192386e-07
-4.92926134e-07
-4.958519e-07
-4.8792729e-07
-4.70489796e-07
-4.45107837e-07
-4.13553889e-07
-3.7718744e-07
-3.38303554e-07
-2.98473738e-07
-2.59034648e-07
-2.21091029e-07
-1.8550671e-07
-1.52909637e-07
-1.2370751e-07
-9.81107182e-08
-7.61594247e-08
-5.77526663e-08
-4.26780245e-08
-3.06405545e-08
-2.12900237e-08
-1.42459504e-08
-9.12012567e-09
-5.53627311e-09
-3.14639033e-09
-1.6428178e-09
-7.6523944e-10
-3.02919374e-10
-9.32409929e-11
-1.84680861e-11
-1.39692144e-12
-1.20754686e-19
-1.23738847e-12
-1.46247788e-11
-6.59565172e-11
-1.91277419e-10
-4.31215972e-10
-8.26099547e-10
-1.41215e-09
-2.21871864e-09
-3.26592939e-09
-4.56228029e-09
-6.10182768e-09
-7.86169459e-09
-9.79876055e-09
-1.18459927e-08
-1.39072437e-08
-1.58547898e-08
-1.75245709e-08
-1.87258285e-08
-1.924004e-08
-1.88269247e-08
-1.73710911e-08
-1.49178057e-08
-1.15679717e-08
-7.87426528e-09
-4.19072303e-09
-1.71886277e-09
-1.14468249e-09
-1.25689523e-09
-1.65984514e-09
-2.39898609e-09
-3.61019742e-09
-5.65152135e-09
-9.54556859e-09
-1.71250074e-08
-3.13228551e-08
-5.58941933e-08
-9.46145559e-08
-1.46617127e-07
-2.04560247e-07
-2.62218725e-07
-3.18733645e-07
-3.77881036e-07
-4.5050579e-07
-5.74280873e-07
-8.12668624e-07
-1.24791165e-06
-2.06551916e-06
-3.59978951e-06
-6.24449829e-06
-8.14491022e-06
-6.55078609e-06
-2.68048102e-06
-8.55329123e-07
-1.2744404e-05
-8.50473314e-06
-3.53552354e-06
-3.1548607e-07
-8.55112671e-13
-6.73728092e-09
-6.33194775e-09
-5.18851616e-09
-4.54770779e-09
-4.2202418e-09
-4.15470208e-09
-4.69835976e-09
-5.9924994e-09
-8.65827583e-09
-1.37450019e-08
-2.25001091e-08
-3.56890447e-08
-5.38591456e-08
-7.73059876e-08
-1.05497709e-07
-1.39035345e-07
-1.80847516e-07
-2.33532168e-07
-2.99313369e-07
-3.83540151e-07
-5.01440617e-07
-7.2103146e-07
-1.06186741e-06
-1.5453254e-06
-2.09336271e-06
-2.54699124e-06
-2.87259409e-06
-3.07450071e-06
-3.16126766e-06
-3.1471559e-06
-3.04870515e-06
-2.8836608e-06
-2.66966157e-06
-2.42313176e-06
-2.15870767e-06
-1.89006215e-06
-1.62114932e-06
-1.36539896e-06
-1.12977416e-06
-9.17833203e-07
-7.3139313e-07
-5.7089617e-07
-4.35699256e-07
-3.24340869e-07
-2.34778689e-07
-1.64595717e-07
-1.11175239e-07
-7.18470412e-08
-4.40071085e-08
-2.52126007e-08
-1.32543865e-08
-6.20883628e-09
-2.47049735e-09
-7.66844106e-10
-1.56562811e-10
-1.35863636e-11
-4.27790901e-13
-3.48766802e-11
-2.53003508e-10
-9.69557619e-10
-2.63676585e-09
-5.802736e-09
-1.10709838e-08
-1.90618458e-08
-3.03729196e-08
-4.55441704e-08
-6.50261021e-08
-8.9161288e-08
-1.18167602e-07
-1.52126105e-07
-1.90962736e-07
-2.34423634e-07
-2.82044204e-07
-3.33119118e-07
-3.86657159e-07
-4.41318664e-07
-4.95338803e-07
-5.46438563e-07
-5.91757333e-07
-6.278107e-07
-6.50302659e-07
-6.51376498e-07
-6.28853358e-07
-5.79807e-07
-5.02880536e-07
-4.01291403e-07
-2.76834777e-07
-1.84642948e-07
-1.61319566e-07
-1.62750781e-07
-1.80168972e-07
-2.03593778e-07
-2.38069676e-07
-2.90659681e-07
-3.77894571e-07
-5.20827486e-07
-7.40299574e-07
-1.05296886e-06
-1.47364115e-06
-2.00486799e-06
-2.60964652e-06
-3.22765907e-06
-3.83636872e-06
-4.4515536e-06
-5.14095794e-06
-6.12957949e-06
-7.8479993e-06
-1.08170369e-05
-1.57105616e-05
-2.34212879e-05
-3.51113035e-05
-4.87580796e-05
-5.64883149e-05
-4.12631358e-05
-2.29830275e-05
-0.000116896763
-7.7783763e-05
-3.61378262e-05
-6.48734172e-06
-2.04413779e-08
-1.91528162e-08
-3.56939712e-08
-3.20291223e-08
-3.0128234e-08
-3.00342575e-08
-3.18375027e-08
-3.79310373e-08
-5.02656473e-08
-7.38811321e-08
-1.16349206e-07
-1.84733641e-07
-2.82416889e-07
-4.11754574e-07
-5.74495633e-07
-7.73256914e-07
-1.02483744e-06
-1.35657197e-06
-1.79222973e-06
-2.36627873e-06
-3.12806021e-06
-4.17001577e-06
-5.71872955e-06
-6.89817038e-06
-7.58768321e-06
-8.05342928e-06
-8.0091012e-06
-7.51808344e-06
-6.80179718e-06
-5.97035535e-06
-5.10999546e-06
-4.27564336e-06
-3.50369976e-06
-2.81467642e-06
-2.21771301e-06
-1.71424821e-06
-1.29657161e-06
-9.56438232e-07
-6.88393436e-07
-4.82225786e-07
-3.27478176e-07
-2.14451582e-07
-1.34461831e-07
-7.99440306e-08
-4.44684198e-08
-2.27018407e-08
-1.03391732e-08
-4.02009222e-09
-1.23989511e-09
-2.59174621e-10
-1.50594595e-11
-3.57612392e-11
-3.59900179e-10
-1.46213859e-09
-4.18623517e-09
-9.68529413e-09
-1.93677702e-08
-3.4847835e-08
-5.78975418e-08
-9.04023402e-08
-1.34312129e-07
-1.91592051e-07
-2.64152873e-07
-3.5379544e-07
-4.62150226e-07
-5.90635517e-07
-7.4048251e-07
-9.12628553e-07
-1.10769826e-06
-1.32591383e-06
-1.56703517e-06
-1.83032415e-06
-2.11449771e-06
-2.41769202e-06
-2.73735228e-06
-3.07013509e-06
-3.4116662e-06
-3.75642803e-06
-4.09716884e-06
-4.42506095e-06
-4.72844024e-06
-4.99183208e-06
-5.16219858e-06
-5.23637155e-06
-5.17904376e-06
-4.96675221e-06
-4.53634868e-06
-3.82662199e-06
-3.38041038e-06
-3.3506757e-06
-3.23853595e-06
-3.25682038e-06
-3.27320466e-06
-3.38058209e-06
-3.62193968e-06
-4.04489648e-06
-4.70020298e-06
-5.57816922e-06
-6.64568645e-06
-7.92055758e-06
-9.58519409e-06
-1.17266409e-05
-1.41626872e-05
-1.67389691e-05
-1.93761692e-05
-2.20759495e-05
-2.49620813e-05
-2.89506689e-05
-3.52382636e-05
-4.36185186e-05
-5.31251261e-05
-6.45672794e-05
-9.34432394e-05
-0.000152713523
-0.000181869955
-0.000163376926
-0.000406582716
-0.000295727557
-0.000162376882
-5.02675423e-05
-1.20983741e-06
-1.52060001e-08
-1.05107383e-07
-1.10727094e-07
-1.15001256e-07
-1.26267166e-07
-1.4621724e-07
-1.84737256e-07
-2.54096382e-07
-3.77326057e-07
-5.83284015e-07
-8.88803523e-07
-1.29609321e-06
-1.80507224e-06
-2.41927577e-06
-3.16741139e-06
-4.1395312e-06
-5.42609642e-06
-7.08905026e-06
-9.24974422e-06
-1.20052839e-05
-1.5319081e-05
-1.85905382e-05
-1.77124392e-05
-1.40762986e-05
-1.07844027e-05
-8.0473487e-06
-5.76737331e-06
-4.04191918e-06
-2.76765311e-06
-1.85212407e-06
-1.20833959e-06
-7.66418516e-07
-4.70695965e-07
-2.78464386e-07
-1.57630026e-07
-8.40813692e-08
-4.1636698e-08
-1.8776533e-08
-7.49076279e-09
-2.5294216e-09
-6.56200391e-10
-7.78497927e-11
-2.70768534e-11
-4.61398119e-10
-1.84742091e-09
-5.00683875e-09
-1.10067565e-08
-2.10824394e-08
-3.65848154e-08
-5.89484795e-08
-8.96771102e-08
-1.30342659e-07
-1.82590815e-07
-2.48141908e-07
-3.28778013e-07
-4.26326877e-07
-5.42661054e-07
-6.7971952e-07
-8.39539901e-07
-1.02422043e-06
-1.2358217e-06
-1.47620564e-06
-1.74702774e-06
-2.04972589e-06
-2.38570875e-06
-2.75651431e-06
-3.16359337e-06
-3.60805492e-06
-4.09046924e-06
-4.61072662e-06
-5.16813094e-06
-5.76151731e-06
-6.38947389e-06
-7.05025881e-06
-7.74195253e-06
-8.46230209e-06
-9.20935911e-06
-9.98071325e-06
-1.07757209e-05
-1.15931257e-05
-1.24318312e-05
-1.32128509e-05
-1.39702537e-05
-1.46526624e-05
-1.52673478e-05
-1.55881002e-05
-1.54849289e-05
-1.65228394e-05
-1.75127426e-05
-1.65888608e-05
-1.57850023e-05
-1.4958268e-05
-1.45316329e-05
-1.45794483e-05
-1.49973694e-05
-1.57389792e-05
-1.65841985e-05
-1.73706921e-05
-1.82086287e-05
-1.98698374e-05
-2.29194459e-05
-2.71516846e-05
-3.22324342e-05
-3.77823586e-05
-4.32007032e-05
-4.7070256e-05
-4.9834908e-05
-5.31162633e-05
-5.4673621e-05
-5.18253909e-05
-4.67647073e-05
-7.00428793e-05
-0.000177848602
-0.000344569749
-0.000448814612
-0.000722750881
-0.000585656359
-0.000390329685
-0.000187344945
-1.6758589e-05
-1.56384964e-10
-1.61085367e-07
-2.31704788e-07
-2.79305933e-07
-3.51374898e-07
-4.54692866e-07
-6.15086905e-07
-8.77037007e-07
-1.30393066e-06
-1.95140023e-06
-2.81064793e-06
-3.84332754e-06
-5.01224337e-06
-6.30667282e-06
-7.81318958e-06
-9.73144797e-06
-1.21406469e-05
-1.50197318e-05
-1.84944743e-05
-2.24702506e-05
-2.61101061e-05
-2.69451282e-05
-1.9788663e-05
-1.06254275e-05
-5.27197365e-06
-2.61830068e-06
-1.2440912e-06
-5.69706746e-07
-2.45115425e-07
-9.63432094e-08
-3.301986e-08
-9.17898191e-09
-1.82898556e-09
-2.09425372e-10
-4.76824198e-13
-1.83541466e-10
-1.34054266e-09
-4.75768801e-09
-1.19471417e-08
-2.44058884e-08
-4.35078454e-08
-7.04678779e-08
-1.06341256e-07
-1.52038313e-07
-2.08344454e-07
-2.75942416e-07
-3.55437624e-07
-4.47388265e-07
-5.52342583e-07
-6.70886276e-07
-8.03694025e-07
-9.51573564e-07
-1.11548038e-06
-1.29648329e-06
-1.49568643e-06
-1.71418849e-06
-1.9531219e-06
-2.21378473e-06
-2.49775703e-06
-2.80678642e-06
-3.14246912e-06
-3.50593877e-06
-3.89808049e-06
-4.31958256e-06
-4.77153477e-06
-5.25541027e-06
-5.77297975e-06
-6.32568017e-06
-6.91427963e-06
-7.53865857e-06
-8.19807741e-06
-8.89153912e-06
-9.61836048e-06
-1.03782375e-05
-1.11716748e-05
-1.20000474e-05
-1.28671947e-05
-1.37791187e-05
-1.47488449e-05
-1.57949508e-05
-1.69471897e-05
-1.81621049e-05
-1.95409846e-05
-2.11060444e-05
-2.30326882e-05
-2.51572123e-05
-2.77530634e-05
-3.33284193e-05
-3.70286763e-05
-3.53144328e-05
-3.30025929e-05
-3.06435508e-05
-2.90941493e-05
-2.84625774e-05
-2.82901028e-05
-2.8219626e-05
-2.77041486e-05
-2.65241777e-05
-2.50638454e-05
-2.47338406e-05
-2.64984703e-05
-3.01676498e-05
-3.53556456e-05
-4.15249909e-05
-4.74983654e-05
-5.00952623e-05
-4.8740517e-05
-4.55684137e-05
-3.88363021e-05
-2.77974771e-05
-1.59478194e-05
-2.15440806e-05
-0.00010182309
-0.000357721851
-0.000658244711
-0.000843965831
-0.000762192078
-0.000609478836
-0.000414987968
-9.2216586e-05
-3.00117001e-07
-9.63583213e-08
-2.77495288e-07
-4.28309848e-07
-6.60833822e-07
-9.93508049e-07
-1.46353051e-06
-2.16617924e-06
-3.19371213e-06
-4.55182591e-06
-6.07211604e-06
-7.59503797e-06
-9.01140292e-06
-1.03089954e-05
-1.16745007e-05
-1.3376064e-05
-1.53650565e-05
-1.74708925e-05
-1.97714184e-05
-2.19507815e-05
-2.26816789e-05
-1.9518626e-05
-1.06553217e-05
-3.50396674e-06
-9.44456915e-07
-2.35606308e-07
-4.50952039e-08
-5.15145306e-09
-1.13672771e-10
-6.82985118e-12
-5.60419194e-10
-4.64605304e-09
-1.62912255e-08
-3.8843701e-08
-7.47218059e-08
-1.25573711e-07
-1.92170025e-07
-2.74660812e-07
-3.72814992e-07
-4.86142485e-07
-6.14011549e-07
-7.55727991e-07
-9.10583566e-07
-1.07788225e-06
-1.25695667e-06
-1.4471848e-06
-1.64801527e-06
-1.8590042e-06
-2.07986794e-06
-2.31055175e-06
-2.55129411e-06
-2.80265659e-06
-3.06548163e-06
-3.34075388e-06
-3.62939742e-06
-3.93221398e-06
-4.24998292e-06
-4.58373753e-06
-4.93499217e-06
-5.30544519e-06
-5.69635708e-06
-6.10831972e-06
-6.54164639e-06
-6.99641597e-06
-7.47325192e-06
-7.97344747e-06
-8.49893678e-06
-9.05132184e-06
-9.63130416e-06
-1.02383575e-05
-1.08711135e-05
-1.15279333e-05
-1.22077615e-05
-1.29103463e-05
-1.36367375e-05
-1.43893595e-05
-1.51741265e-05
-1.60004416e-05
-1.68876155e-05
-1.78639781e-05
-1.8976486e-05
-2.02070318e-05
-2.16964681e-05
-2.35351959e-05
-2.60320627e-05
-2.91821004e-05
-3.37421864e-05
-4.31202345e-05
-5.01104989e-05
-4.91962301e-05
-4.64255791e-05
-4.33016787e-05
-4.11425659e-05
-4.0242958e-05
-3.98353108e-05
-3.90410142e-05
-3.6894465e-05
-3.32502956e-05
-2.89872769e-05
-2.60765255e-05
-2.56525585e-05
-2.73821527e-05
-3.07701003e-05
-3.52415599e-05
-3.95745978e-05
-4.0319169e-05
-3.65982236e-05
-3.09964184e-05
-2.32238161e-05
-1.36701723e-05
-4.65976897e-06
-2.33239351e-06
-3.14081834e-05
-0.000232261406
-0.000631574837
-0.00074664729
-0.000762575596
-0.000718944642
-0.000652929771
-0.000269566394
-8.49567309e-06
-6.89543224e-09
-1.46140907e-07
-3.65547206e-07
-7.8951317e-07
-1.48136241e-06
-2.45485143e-06
-3.80663006e-06
-5.53040224e-06
-7.38305362e-06
-8.90775492e-06
-9.89178667e-06
-1.03374635e-05
-1.04202275e-05
-1.05045578e-05
-1.08717554e-05
-1.13930177e-05
-1.18684391e-05
-1.23375063e-05
-1.24755469e-05
-1.13240664e-05
-7.9144544e-06
-2.9703041e-06
-4.77709832e-07
-3.65934246e-08
-1.68405816e-10
-1.94757287e-09
-8.83990141e-09
-3.13757361e-08
-7.94051846e-08
-1.58078816e-07
-2.68747245e-07
-4.10570841e-07
-5.80970926e-07
-7.77979367e-07
-9.98903311e-07
-1.24052311e-06
-1.49967766e-06
-1.77344565e-06
-2.05914901e-06
-2.35443097e-06
-2.6572506e-06
-2.9658485e-06
-3.27870028e-06
-3.59448114e-06
-3.91205292e-06
-4.23048257e-06
-4.54908665e-06
-4.86750596e-06
-5.18580294e-06
-5.50454121e-06
-5.82479017e-06
-6.14800357e-06
-6.47574689e-06
-6.80933078e-06
-7.14975068e-06
-7.49787301e-06
-7.85486341e-06
-8.22255237e-06
-8.60269866e-06
-8.99656121e-06
-9.40466649e-06
-9.8269699e-06
-1.02629761e-05
-1.07129501e-05
-1.11781268e-05
-1.16607021e-05
-1.21625524e-05
-1.26843349e-05
-1.32250203e-05
-1.37823823e-05
-1.43537694e-05
-1.49372137e-05
-1.55318244e-05
-1.61382541e-05
-1.67586455e-05
-1.73990414e-05
-1.80695202e-05
-1.87915592e-05
-1.95969356e-05
-2.05404122e-05
-2.16132979e-05
-2.29684551e-05
-2.47324665e-05
-2.72706384e-05
-3.06763008e-05
-3.59383706e-05
-4.71580368e-05
-5.6984441e-05
-5.80689746e-05
-5.60919424e-05
-5.32392151e-05
-5.1304796e-05
-5.08995091e-05
-5.09882839e-05
-4.99398084e-05
-4.62641051e-05
-4.00696499e-05
-3.29926151e-05
-2.76162015e-05
-2.51766803e-05
-2.51059638e-05
-2.67196415e-05
-2.93866426e-05
-3.20618491e-05
-3.1838847e-05
-2.80092959e-05
-2.31953974e-05
-1.76121197e-05
-1.12707927e-05
-4.8578177e-06
-4.89266681e-07
-5.6902361e-06
-0.000105398438
-0.000442965567
-0.000538749337
-0.000636129897
-0.000701100704
-0.00082596172
-0.000525275219
-6.3508648e-05
-4.4298261e-08
-1.21493538e-08
-1.20750473e-07
-5.05596203e-07
-1.37074542e-06
-2.72635725e-06
-4.54742004e-06
-6.53099592e-06
-8.06868605e-06
-8.60710611e-06
-8.2416926e-06
-7.3739954e-06
-6.40834537e-06
-5.6918709e-06
-5.33392418e-06
-5.14952107e-06
-4.96388755e-06
-4.76473143e-06
-4.35864694e-06
-3.37110505e-06
-1.76455019e-06
-3.43912057e-07
-3.33108933e-09
-1.49323562e-08
-4.9076058e-08
-1.29544281e-07
-2.74839586e-07
-4.88246181e-07
-7.61787748e-07
-1.08783454e-06
-1.45766712e-06
-1.8632475e-06
-2.29655106e-06
-2.75201539e-06
-3.22405271e-06
-3.70686146e-06
-4.19534809e-06
-4.68510218e-06
-5.1723647e-06
-5.65410464e-06
-6.12791864e-06
-6.59190331e-06
-7.04453045e-06
-7.48456309e-06
-7.91102229e-06
-8.3232174e-06
-8.72081587e-06
-9.10395924e-06
-9.47340735e-06
-9.83064515e-06
-1.01778558e-05
-1.05176981e-05
-1.08528663e-05
-1.11855086e-05
-1.15171988e-05
-1.18492577e-05
-1.21833167e-05
-1.25216556e-05
-1.28662085e-05
-1.32188507e-05
-1.35802217e-05
-1.39498642e-05
-1.43267925e-05
-1.47110502e-05
-1.5103992e-05
-1.55082328e-05
-1.59260767e-05
-1.63581993e-05
-1.68030295e-05
-1.72573694e-05
-1.77173873e-05
-1.81799716e-05
-1.86433452e-05
-1.91074753e-05
-1.95738332e-05
-2.0048051e-05
-2.05401786e-05
-2.10728492e-05
-2.16795029e-05
-2.24199019e-05
-2.32900591e-05
-2.44433302e-05
-2.60262547e-05
-2.84225098e-05
-3.17759541e-05
-3.71370927e-05
-4.90169168e-05
-6.09345255e-05
-6.4384594e-05
-6.3943703e-05
-6.21047716e-05
-6.11143143e-05
-6.19378159e-05
-6.31893178e-05
-6.22127151e-05
-5.69375621e-05
-4.79959051e-05
-3.80464204e-05
-3.03343374e-05
-2.61597958e-05
-2.4686697e-05
-2.50228328e-05
-2.64620766e-05
-2.81444465e-05
-2.77639537e-05
-2.48172292e-05
-2.17657481e-05
-1.87957863e-05
-1.52140854e-05
-9.81330507e-06
-3.17673643e-06
-7.32670561e-07
-3.85932638e-05
-0.000247152843
-0.000336107232
-0.000464027918
-0.000592747761
-0.000902855004
-0.000801913346
-0.000220604464
-2.6844153e-06
-2.94234925e-10
-3.2062206e-09
-1.12888935e-07
-6.50562667e-07
-1.79003946e-06
-3.41311953e-06
-4.95336872e-06
-5.65329903e-06
-5.23768906e-06
-4.20869834e-06
-3.13534993e-06
-2.29656584e-06
-1.77403894e-06
-1.49863328e-06
-1.32455387e-06
-1.16077777e-06
-9.95448528e-07
-7.72812578e-07
-4.3731951e-07
-1.01990354e-07
-3.68107429e-09
-8.08985627e-08
-2.09792919e-07
-4.63078315e-07
-8.65439095e-07
-1.37681647e-06
-1.97731612e-06
-2.63945128e-06
-3.34851287e-06
-4.09037831e-06
-4.85328366e-06
-5.62636916e-06
-6.40257618e-06
-7.17532623e-06
-7.93762598e-06
-8.68351967e-06
-9.40794093e-06
-1.01068201e-05
-1.07772074e-05
-1.14170708e-05
-1.2025056e-05
-1.26002681e-05
-1.3142135e-05
-1.36503577e-05
-1.41249715e-05
-1.4566458e-05
-1.49759233e-05
-1.53553094e-05
-1.5707543e-05
-1.60364674e-05
-1.63464879e-05
-1.66419181e-05
-1.6926113e-05
-1.72015234e-05
-1.74702523e-05
-1.77345879e-05
-1.79972606e-05
-1.82610746e-05
-1.85287844e-05
-1.88010237e-05
-1.90768485e-05
-1.93548005e-05
-1.96348599e-05
-1.99187165e-05
-2.02095643e-05
-2.05102486e-05
-2.08214652e-05
-2.1141003e-05
-2.14645672e-05
-2.17870186e-05
-2.21039528e-05
-2.24125904e-05
-2.27121358e-05
-2.30033086e-05
-2.32912696e-05
-2.35860483e-05
-2.39115421e-05
-2.43028153e-05
-2.48243731e-05
-2.54770958e-05
-2.64119994e-05
-2.77888648e-05
-2.99961796e-05
-3.32079272e-05
-3.84640695e-05
-5.04700865e-05
-6.38374804e-05
-6.95968648e-05
-7.10625641e-05
-7.07395831e-05
-7.12875544e-05
-7.39919597e-05
-7.69042987e-05
-7.60534848e-05
-6.88691829e-05
-5.68850239e-05
-4.39955964e-05
-3.4059321e-05
-2.83533982e-05
-2.57509127e-05
-2.51604023e-05
-2.57949753e-05
-2.69512953e-05
-2.68226667e-05
-2.51027862e-05
-2.41682648e-05
-2.4213583e-05
-2.39561191e-05
-1.90399244e-05
-8.08727139e-06
-9.49120343e-07
-1.36812026e-05
-0.000120983438
-0.000194065344
-0.000309868659
-0.000448862367
-0.000884924499
-0.00104525929
-0.000491329098
-2.4522985e-05
-2.61591369e-07
-2.92178091e-09
-9.62307243e-10
-9.8217404e-08
-5.61940616e-07
-1.41833152e-06
-2.20604473e-06
-2.35927089e-06
-1.86694132e-06
-1.20478154e-06
-6.97700249e-07
-3.91945548e-07
-2.33839659e-07
-1.53516787e-07
-1.00509084e-07
-5.74199394e-08
-2.51051556e-08
-3.52074023e-09
-6.43219687e-09
-6.71640304e-08
-1.88618271e-07
-4.35719075e-07
-9.51119236e-07
-1.72352417e-06
-2.69929119e-06
-3.77174468e-06
-4.91611927e-06
-6.09397562e-06
-7.29154915e-06
-8.49395585e-06
-9.68593851e-06
-1.08575841e-05
-1.20017303e-05
-1.31119333e-05
-1.41808728e-05
-1.52023565e-05
-1.61712079e-05
-1.70836364e-05
-1.79374158e-05
-1.87315539e-05
-1.94658949e-05
-2.01407792e-05
-2.07568413e-05
-2.13149432e-05
-2.18162888e-05
-2.22625962e-05
-2.26563618e-05
-2.3001165e-05
-2.33018748e-05
-2.35645298e-05
-2.37958096e-05
-2.40021023e-05
-2.41882614e-05
-2.43578134e-05
-2.4513866e-05
-2.46592648e-05
-2.47978678e-05
-2.49339937e-05
-2.50711387e-05
-2.52098157e-05
-2.53483789e-05
-2.54848557e-05
-2.56193704e-05
-2.5754235e-05
-2.58933967e-05
-2.60403032e-05
-2.61955796e-05
-2.63561878e-05
-2.65165704e-05
-2.66701695e-05
-2.68111719e-05
-2.69357286e-05
-2.70422771e-05
-2.7130804e-05
-2.72060858e-05
-2.72783643e-05
-2.73732565e-05
-2.75280096e-05
-2.78123698e-05
-2.8235622e-05
-2.89416272e-05
-3.01053962e-05
-3.21148427e-05
-3.51670174e-05
-4.02664277e-05
-5.21765538e-05
-6.65244307e-05
-7.4383908e-05
-7.79200597e-05
-7.94671028e-05
-8.20603595e-05
-8.71999183e-05
-9.20414377e-05
-9.10533095e-05
-8.14574293e-05
-6.61439621e-05
-5.03451943e-05
-3.83608625e-05
-3.1307587e-05
-2.77494179e-05
-2.64198924e-05
-2.64554997e-05
-2.72956355e-05
-2.75743971e-05
-2.72452303e-05
-2.88156527e-05
-3.28764541e-05
-3.79958287e-05
-3.41926867e-05
-1.6035596e-05
-2.47641024e-06
-5.80501668e-06
-5.80431641e-05
-0.000111371599
-0.000199279431
-0.000315540188
-0.000790225616
-0.00110698918
-0.00085146866
-9.92492961e-05
-3.35125652e-06
-3.28161966e-07
-8.8125897e-09
-2.48327108e-10
-4.63052522e-08
-2.50871308e-07
-4.90609199e-07
-5.13613322e-07
-3.34353609e-07
-1.48790237e-07
-4.64773405e-08
-8.06318451e-09
-1.75267959e-14
-6.07403219e-09
-2.60302215e-08
-6.11506724e-08
-1.08015402e-07
-1.64169874e-07
-2.32385009e-07
-3.36395257e-07
-5.88508092e-07
-1.35096985e-06
-2.61668469e-06
-4.18768106e-06
-5.94967618e-06
-7.74720436e-06
-9.56979336e-06
-1.13751372e-05
-1.31560528e-05
-1.48974484e-05
-1.65840619e-05
-1.82066531e-05
-1.97603633e-05
-2.12394428e-05
-2.26368733e-05
-2.39467269e-05
-2.51642672e-05
-2.62866395e-05
-2.73130786e-05
-2.82443988e-05
-2.9082378e-05
-2.98292567e-05
-3.04874547e-05
-3.10594888e-05
-3.15481732e-05
-3.19568728e-05
-3.22898818e-05
-3.25528535e-05
-3.27530902e-05
-3.28993549e-05
-3.30011204e-05
-3.30672705e-05
-3.31043503e-05
-3.31170138e-05
-3.31091994e-05
-3.30844801e-05
-3.30490787e-05
-3.30089649e-05
-3.29682973e-05
-3.29272128e-05
-3.28829835e-05
-3.28330104e-05
-3.27778412e-05
-3.27208137e-05
-3.26668432e-05
-3.26199866e-05
-3.25805952e-05
-3.2544504e-05
-3.25046836e-05
-3.24530737e-05
-3.23823794e-05
-3.22876572e-05
-3.21666225e-05
-3.20185949e-05
-3.18481125e-05
-3.16659455e-05
-3.15000019e-05
-3.13905155e-05
-3.1413153e-05
-3.15867542e-05
-3.20527635e-05
-3.29963205e-05
-3.48054449e-05
-3.76984544e-05
-4.26382944e-05
-5.43643319e-05
-6.93649061e-05
-7.90783845e-05
-8.47343554e-05
-8.84120866e-05
-9.34902725e-05
-0.000101490337
-0.000108233408
-0.000106517923
-9.38939882e-05
-7.50606155e-05
-5.6532393e-05
-4.27751881e-05
-3.45815628e-05
-3.01969772e-05
-2.82167394e-05
-2.77132055e-05
-2.82742572e-05
-2.89692948e-05
-3.01195235e-05
-3.46042607e-05
-4.40571744e-05
-5.81071851e-05
-5.75273746e-05
-2.8513427e-05
-4.9074654e-06
-3.570628e-06
-3.00887351e-05
-6.72416257e-05
-0.000129321971
-0.000214764166
-0.000647299614
-0.00109716711
-0.00115767787
-0.000260228851
-1.58004925e-05
-2.66533992e-06
-4.24229675e-07
-1.90597743e-08
-3.59845815e-14
-1.00927486e-08
-4.05119784e-08
-4.4485548e-08
-1.67965215e-08
-2.23854125e-10
-6.35022464e-09
-1.82596016e-08
-2.75089287e-08
-4.99537067e-08
-1.05548828e-07
-1.89390363e-07
-2.85150275e-07
-3.78174219e-07
-4.75209269e-07
-6.83269175e-07
-1.39031348e-06
-3.11837358e-06
-5.46947666e-06
-8.08771944e-06
-1.08256939e-05
-1.35002877e-05
-1.61295397e-05
-1.86719429e-05
-2.11301127e-05
-2.34878413e-05
-2.5730862e-05
-2.78539962e-05
-2.98553943e-05
-3.17304428e-05
-3.34731085e-05
-3.5078374e-05
-3.65427111e-05
-3.78650912e-05
-3.90471691e-05
-4.00925241e-05
-4.10057469e-05
-4.17917411e-05
-4.24553449e-05
-4.30012416e-05
-4.34342942e-05
-4.3759905e-05
-4.39845428e-05
-4.41163392e-05
-4.41654927e-05
-4.4144004e-05
-4.40646436e-05
-4.3939174e-05
-4.37759124e-05
-4.35803764e-05
-4.33566926e-05
-4.31103412e-05
-4.28505806e-05
-4.25853266e-05
-4.23192807e-05
-4.2051768e-05
-4.17783924e-05
-4.14957176e-05
-4.12050827e-05
-4.09114196e-05
-4.06209001e-05
-4.03381422e-05
-4.00628805e-05
-3.9789382e-05
-3.95088834e-05
-3.92117871e-05
-3.8889311e-05
-3.85354504e-05
-3.81472954e-05
-3.77236044e-05
-3.7268861e-05
-3.67947304e-05
-3.6332036e-05
-3.5924933e-05
-3.56558146e-05
-3.5555604e-05
-3.57638903e-05
-3.64759917e-05
-3.80800982e-05
-4.08156576e-05
-4.56047956e-05
-5.71143878e-05
-7.25412191e-05
-8.38719074e-05
-9.16331024e-05
-9.76432967e-05
-0.000105588122
-0.000116703001
-0.000124972281
-0.000121651838
-0.000105368426
-8.29758244e-05
-6.20445844e-05
-4.6872625e-05
-3.77704202e-05
-3.26678932e-05
-3.00677175e-05
-2.89969805e-05
-2.92130654e-05
-3.02411334e-05
-3.28664877e-05
-4.05252639e-05
-5.67030284e-05
-8.44371909e-05
-9.14706551e-05
-4.71787834e-05
-8.53341441e-06
-3.24645718e-06
-1.7939837e-05
-4.41953349e-05
-8.76369151e-05
-0.000147388369
-0.000491339094
-0.00108749221
-0.00115344931
-0.000545475266
-4.67951877e-05
-9.77561861e-06
-2.75553448e-06
-5.16085082e-07
-8.00570796e-08
-1.40784391e-08
-4.13065435e-09
-8.15452805e-09
-3.609054e-08
-9.78784329e-08
-1.607137e-07
-1.76822231e-07
-1.32897609e-07
-8.40513576e-08
-1.02089012e-07
-1.94739505e-07
-3.34600624e-07
-5.05694729e-07
-7.49566562e-07
-1.29023243e-06
-2.85571786e-06
-5.95999447e-06
-9.69505236e-06
-1.35913859e-05
-1.74866685e-05
-2.11893715e-05
-2.47555856e-05
-2.81474311e-05
-3.13780277e-05
-3.44283658e-05
-3.7287261e-05
-3.99571712e-05
-4.24394533e-05
-4.4731341e-05
-4.68287606e-05
-4.87285871e-05
-5.04296214e-05
-5.1933881e-05
-5.32466887e-05
-5.43755738e-05
-5.53289737e-05
-5.6115311e-05
-5.67425137e-05
-5.72179375e-05
-5.75489079e-05
-5.7743212e-05
-5.78098149e-05
-5.77596715e-05
-5.76062902e-05
-5.73653878e-05
-5.70535203e-05
-5.66856813e-05
-5.62718803e-05
-5.58175631e-05
-5.53271638e-05
-5.48086693e-05
-5.4275173e-05
-5.37370251e-05
-5.31992669e-05
-5.26597619e-05
-5.21116056e-05
-5.15501771e-05
-5.0978075e-05
-5.04026141e-05
-4.98316211e-05
-4.92701678e-05
-4.87168539e-05
-4.81637559e-05
-4.76000484e-05
-4.70146343e-05
-4.63973378e-05
-4.57412012e-05
-4.50428457e-05
-4.43006133e-05
-4.35191524e-05
-4.27114352e-05
-4.19118681e-05
-4.11695444e-05
-4.05745122e-05
-4.01715499e-05
-4.01004141e-05
-4.05657839e-05
-4.19563804e-05
-4.45329175e-05
-4.91796647e-05
-6.04635518e-05
-7.6160697e-05
-8.88984587e-05
-9.87175923e-05
-0.000107230302
-0.000118368063
-0.000132634109
-0.000141686763
-0.000135685723
-0.000115199611
-8.93828055e-05
-6.64864456e-05
-5.02990077e-05
-4.05236814e-05
-3.47939477e-05
-3.1571458e-05
-2.98624961e-05
-2.9627235e-05
-3.08683521e-05
-3.49079206e-05
-4.5439512e-05
-6.825613e-05
-0.000115262991
-0.000138540123
-7.38421444e-05
-1.37828821e-05
-3.75780194e-06
-1.25885825e-05
-3.20654266e-05
-6.32814699e-05
-0.000105169922
-0.000352605477
-0.00108167619
-0.00114002728
-0.000981988136
-0.000108301559
-2.43458181e-05
-9.09304548e-06
-2.83465731e-06
-9.17626413e-07
-3.88505726e-07
-2.72492821e-07
-3.29187796e-07
-5.26402839e-07
-7.9633438e-07
-9.97001578e-07
-1.00273732e-06
-7.84032526e-07
-4.79622337e-07
-2.92137109e-07
-2.94956511e-07
-4.56540555e-07
-7.6794321e-07
-1.32177235e-06
-2.44373775e-06
-5.22951425e-06
-1.00576548e-05
-1.54478317e-05
-2.08437639e-05