/*--------------------------------*- C++ -*----------------------------------*\
| =========                 |                                                 |
| \\      /  F ield         | OpenFOAM: The Open Source CFD Toolbox           |
|  \\    /   O peration     | Version:  2506                                  |
|   \\  /    A nd           | Website:  www.openfoam.com                      |
|    \\/     M anipulation  |                                                 |
\*---------------------------------------------------------------------------*/
FoamFile
{
    version     2.0;
    format      ascii;
    arch        "LSB;label=32;scalar=64";
    class       volScalarField;
    location    "2644";
    object      k;
}
// * * * * * * * * * * * * * * * * * * * * * * * * * * * * * * * * * * * * * //

dimensions      [0 2 -2 0 0 0 0];

internalField   nonuniform List<scalar> 
15600
(
1.71018731e-05
2.16810452e-05
9.81017361e-06
5.59612495e-07
4.18609293e-06
3.98546389e-06
2.41265209e-06
1.99155017e-06
1.6246105e-06
1.32533837e-06
1.07146608e-06
9.54354947e-07
9.19579735e-07
9.73839721e-07
1.12569459e-06
1.38197744e-06
1.69856336e-06
2.02049928e-06
2.32190875e-06
2.54828726e-06
2.65220327e-06
2.66204261e-06
2.64225975e-06
2.58452035e-06
2.49974174e-06
2.45203159e-06
2.34802544e-06
2.98046328e-06
5.2811326e-06
8.26940079e-06
1.11461816e-05
1.4037875e-05
1.67740528e-05
1.93438763e-05
2.1703777e-05
2.38348015e-05
2.57124325e-05
2.73209399e-05
2.86504958e-05
2.96990402e-05
3.04689118e-05
3.09694483e-05
3.12075328e-05
3.11970972e-05
3.09563735e-05
3.05060556e-05
2.98684542e-05
2.90667454e-05
2.81243296e-05
2.70642864e-05
2.59089999e-05
2.46799384e-05
2.33974805e-05
2.20808043e-05
2.07478498e-05
1.94152969e-05
1.80984999e-05
1.68113247e-05
1.55657843e-05
1.43714679e-05
1.32352237e-05
1.21610862e-05
1.11510862e-05
1.02062017e-05
9.32693382e-06
8.51303891e-06
7.76282105e-06
7.07370387e-06
6.44211819e-06
5.86500107e-06
5.33831529e-06
4.85993553e-06
4.42618432e-06
4.03412724e-06
3.67988771e-06
3.35992537e-06
3.07818535e-06
3.15807689e-06
3.25130312e-06
3.33163211e-06
3.39449337e-06
3.43403828e-06
3.44332319e-06
3.41348412e-06
3.33543308e-06
3.19831293e-06
3.00595959e-06
2.74184734e-06
2.41246016e-06
2.01135399e-06
1.58321443e-06
1.11827723e-06
1.32984804e-06
1.60349068e-06
1.71105998e-06
1.77972067e-06
1.71726084e-06
1.70885358e-06
2.25015449e-06
3.18333341e-06
4.74520492e-06
7.29657999e-06
1.12102428e-05
1.66943224e-05
2.29838175e-05
2.92488542e-05
3.57642553e-05
4.30930012e-05
5.21985218e-05
6.510126e-05
8.74539244e-05
0.000124084606
0.000177436807
0.000259539058
0.000375329012
0.00048820245
0.000411964302
0.000195947045
5.40160063e-05
1.70288389e-05
4.40653527e-05
4.09884969e-05
2.4837401e-05
1.10720111e-05
4.42663694e-06
2.27049971e-06
1.86747638e-06
1.61138304e-06
1.31449074e-06
1.07310532e-06
8.80586945e-07
7.78331035e-07
7.59478001e-07
8.19549946e-07
9.63090212e-07
1.19592801e-06
1.51580631e-06
1.91485535e-06
2.39784565e-06
2.95648677e-06
3.57134852e-06
4.2324617e-06
4.95132445e-06
5.70309238e-06
6.44503611e-06
7.19342466e-06
8.04311718e-06
9.50481377e-06
1.28347843e-05
1.76520674e-05
2.2866285e-05
2.83505491e-05
3.40463752e-05
3.99084953e-05
4.58973084e-05
5.19723459e-05
5.80856311e-05
6.41877057e-05
7.02337287e-05
7.61927671e-05
8.20374767e-05
8.77735563e-05
9.32732642e-05
9.84956885e-05
0.000103416359
0.000108011826
0.000112263541
0.000116157292
0.000119682553
0.000122831724
0.000125599365
0.000127981806
0.000129976873
0.000131583701
0.000132803183
0.000133639081
0.000134100134
0.000134202511
0.000133971644
0.0001334405
0.000132644039
0.000131611631
0.00013036106
0.000128904487
0.000127257056
0.000125444491
0.000123490115
0.000121414936
0.000119226898
0.000116943252
0.000114548536
0.000112076761
0.00010953001
0.000106939335
0.000104311048
0.000101650414
9.89512533e-05
9.62485053e-05
9.34768572e-05
9.06106965e-05
8.76208504e-05
8.44693209e-05
8.1111827e-05
7.74952642e-05
7.35668899e-05
6.92618505e-05
6.47711094e-05
5.98961045e-05
5.46051689e-05
4.8863e-05
4.27372535e-05
3.58459522e-05
3.19618155e-05
3.45050901e-05
3.91108936e-05
4.42634918e-05
4.89876923e-05
5.35047861e-05
5.88683836e-05
6.60179492e-05
7.42289918e-05
8.2540097e-05
8.93386682e-05
9.31606107e-05
9.25504158e-05
8.95965357e-05
8.6255899e-05
8.35724129e-05
8.24898287e-05
8.48191666e-05
9.32464592e-05
0.000107151516
0.000128281817
0.00016143801
0.00020273492
0.000221166877
0.00017415022
0.000106940295
5.94080503e-05
4.44207492e-05
0.000305885486
0.000278238817
0.00017236239
8.15081338e-05
2.89543576e-05
1.27649421e-05
1.12595151e-05
9.87613987e-06
8.08843295e-06
6.61355295e-06
5.44301907e-06
4.78915548e-06
4.66438283e-06
5.03179473e-06
5.9136349e-06
7.34454528e-06
9.35529108e-06
1.19461785e-05
1.51793419e-05
1.90549505e-05
2.34847351e-05
2.83624443e-05
3.37008861e-05
3.93316208e-05
4.49285608e-05
5.05350643e-05
5.69358454e-05
6.70215527e-05
8.89554047e-05
0.000121044856
0.000156193017
0.000193257603
0.000231991972
0.000272072957
0.000313257461
0.000355269448
0.000397785447
0.000440462369
0.000482985041
0.00052513362
0.000566703846
0.000607474737
0.000646448118
0.000683648773
0.000718879967
0.000751965959
0.000782763669
0.000811159061
0.000837063
0.000860406404
0.000881135381
0.000899208811
0.000914596605
0.000927278662
0.000937247956
0.00094451823
0.000949138221
0.000951208513
0.00095089399
0.000948412731
0.000943999277
0.000937852828
0.000930097199
0.000920816713
0.000910116924
0.000898173457
0.000885148868
0.000871190878
0.000856358169
0.000840780516
0.000824350213
0.000807311803
0.000789676542
0.00077166576
0.000753336487
0.000734711835
0.00071575483
0.000696397206
0.000676521891
0.000655977646
0.000634564065
0.000612019417
0.000588035065
0.00056224186
0.000534262769
0.000503609072
0.000471207002
0.000436065763
0.000397931669
0.000356556802
0.000312358507
0.000262802347
0.0002346047
0.000253276316
0.000286732579
0.000323938426
0.000358344959
0.000391444835
0.000430193777
0.0004809102
0.000538107921
0.000594364191
0.000638149376
0.000659292085
0.000649317116
0.000622937383
0.000593248447
0.000567190675
0.000550688911
0.000554529378
0.000591381552
0.000652832498
0.000748058816
0.000896151032
0.00106515892
0.0010888943
0.00083307303
0.000569598089
0.000376312622
0.000308105754
0.00114058337
0.00103624234
0.000648500008
0.000311223488
0.000112273461
4.85013584e-05
4.22976851e-05
3.73715475e-05
3.07552434e-05
2.51942806e-05
2.07374662e-05
1.81789257e-05
1.76088994e-05
1.88984333e-05
2.21204318e-05
2.74006911e-05
3.48683136e-05
4.45349909e-05
5.66332137e-05
7.11834281e-05
8.78701678e-05
0.00010627355
0.000126408869
0.000147666363
0.000168833598
0.000190019098
0.00021418413
0.000252045682
0.000332703537
0.000449891875
0.00057783128
0.000711891389
0.000851193235
0.000994519318
0.00114099045
0.00128960642
0.00143922541
0.00158864996
0.00173679201
0.00188292923
0.00202637482
0.00216310206
0.00229366233
0.00241773984
0.00253478017
0.0026443162
0.00274598218
0.00283949942
0.00292466158
0.00300131841
0.00306936086
0.00312871372
0.00317933026
0.00322118935
0.00325430467
0.00327874762
0.00329468928
0.00330245113
0.00330254263
0.00329563082
0.00328243572
0.00326357416
0.00323944307
0.00321030608
0.00317648874
0.00313851601
0.00309688318
0.00305204487
0.0030041793
0.00295373195
0.00290033422
0.00284478534
0.00278720959
0.00272805534
0.00266761313
0.00260597207
0.0025430272
0.00247853218
0.0024121512
0.00234339931
0.00227161814
0.00219594067
0.00211532073
0.0020284976
0.00193411784
0.00183032503
0.00171763854
0.00159488338
0.00146090458
0.00131470186
0.00115725945
0.000980597185
0.000879939107
0.000946590758
0.00106464209
0.00119538325
0.00131782243
0.0014372356
0.00157651392
0.00175495931
0.001953781
0.00214673813
0.00229627372
0.0023699656
0.00234276897
0.00225925422
0.00216155106
0.00207397323
0.00201775424
0.00202978278
0.00215044523
0.00235335387
0.00266498556
0.00313436069
0.0036531869
0.00373607386
0.00291299746
0.00203501986
0.00138485932
0.00114945374
0.00294202149
0.00268009971
0.00171629108
0.000844511386
0.000314631405
0.000133003819
0.000113714009
0.000101250306
8.37873541e-05
6.87872586e-05
5.66387091e-05
4.94706611e-05
4.76320889e-05
5.08175973e-05
5.91907049e-05
7.30613533e-05
9.27664393e-05
0.000118320836
0.000150293748
0.000188722885
0.000232753225
0.000281217447
0.000334058337
0.000389707756
0.000445092643
0.000500462589
0.000563702793
0.000662131283
0.000864706622
0.00115305592
0.00146269206
0.00178120358
0.00210641448
0.00243541934
0.00276626019
0.00309677316
0.00342460725
0.00374738384
0.00406300397
0.00437024509
0.00466304946
0.00493896844
0.00520027557
0.00544648853
0.00567695851
0.00589119693
0.0060888759
0.00626979757
0.00643386549
0.00658105543
0.00671139059
0.00682493079
0.00692176454
0.00700200531
0.00706580734
0.0071134038
0.00714517553
0.00716173739
0.00716400394
0.00715314774
0.00713043837
0.00709697936
0.0070535155
0.00700052539
0.00693857919
0.00686855361
0.00679129349
0.00670758401
0.00661772209
0.00652259942
0.0064219193
0.00631628034
0.00620626309
0.00609259147
0.00597579474
0.00585604707
0.0057331724
0.00560671902
0.00547605601
0.00534025655
0.00519803621
0.00504768122
0.00488706178
0.00471356632
0.00452421609
0.00431487347
0.00408019867
0.00382184348
0.00353595071
0.00321917603
0.00287108472
0.00247561394
0.00224568577
0.00239011749
0.00264983296
0.00293990236
0.00321892639
0.00349803211
0.00382236626
0.00422653312
0.00467043901
0.00509673818
0.00543115261
0.0056110957
0.00559048922
0.00544821549
0.00526624184
0.00509746369
0.00499053357
0.00502711888
0.00529228064
0.00573548935
0.00640110508
0.00736011254
0.00838228884
0.00858861829
0.00691807217
0.00496040144
0.00349505504
0.00296134469
0.00584002632
0.00536400232
0.00358171547
0.00184718577
0.000724495274
0.000299521967
0.000249529449
0.000224010249
0.000186573025
0.000153574951
0.000126554635
0.000110138009
0.000105349845
0.000111628274
0.000129238915
0.000158736538
0.00020072856
0.000255089932
0.000322773274
0.000403596297
0.000495470233
0.000595661402
0.000703719126
0.000816455469
0.000928132591
0.00103981845
0.00116815817
0.0013652666
0.00175062136
0.00227921066
0.00282944875
0.00337899488
0.00392529807
0.00446483967
0.00499570549
0.00551563994
0.0060221566
0.00651273738
0.00698513848
0.00743584696
0.0078571012
0.00825330536
0.0086257765
0.00897424796
0.00929839001
0.00959803979
0.00987318969
0.0101239507
0.01035052
0.0105531486
0.0107321153
0.0108877184
0.01102027
0.0111300935
0.0112175437
0.0112830523
0.0113272079
0.0113508613
0.0113552092
0.0113417558
0.0113121405
0.0112678192
0.0112098357
0.011138853
0.011055623
0.0109612194
0.0108566966
0.0107430441
0.010621232
0.0104915089
0.0103539238
0.0102090919
0.0100578035
0.00990093086
0.00973913819
0.00957266795
0.00940132265
0.00922453951
0.00904149603
0.00885097169
0.00865124725
0.00844000412
0.00821429814
0.00797047152
0.00770417192
0.00740928574
0.00707332871
0.00669982236
0.00628127151
0.005810395
0.00528149641
0.00467161914
0.00430285787
0.00450432323
0.00489628498
0.00534968212
0.00580573823
0.00627867936
0.00682814763
0.00749423056
0.00821563227
0.00890493177
0.00945999981
0.00979744445
0.00985855609
0.00973914044
0.00954852025
0.00936491899
0.00926511273
0.00937682755
0.00982998742
0.0105582509
0.0116103886
0.0130504243
0.014537871
0.0149346421
0.0125507696
0.0092884983
0.00677386465
0.00586574502
0.00946800996
0.00878978551
0.006202752
0.00342855271
0.00145224753
0.000594633691
0.000478375955
0.000432760341
0.000363180219
0.000299935966
0.000247527899
0.00021464062
0.000203824385
0.000214223724
0.000246101107
0.000300102042
0.000376850381
0.000475463218
0.000596736414
0.000739279101
0.000898332108
0.00106837302
0.0012481523
0.00143286759
0.00161509897
0.00179917263
0.00201414016
0.00233834299
0.00293157097
0.00370720051
0.00448696777
0.00524405208
0.00597908657
0.0066910086
0.00738001446
0.00804536087
0.00868570531
0.00929940545
0.00988515953
0.0104330773
0.0109466976
0.0114288473
0.0118803619
0.0123012246
0.0126914251
0.0130511018
0.0133805247
0.0136800609
0.013950144
0.0141912429
0.0144038386
0.0145884202
0.0147454816
0.0148755203
0.0149790588
0.0150566908
0.0151091614
0.0151374799
0.0151430114
0.0151274511
0.0150926646
0.0150403495
0.0149717982
0.0148878346
0.014789354
0.0146775341
0.0145537369
0.0144192056
0.0142745667
0.0141202221
0.0139564276
0.0137838312
0.0136033107
0.0134158042
0.0132220473
0.0130223465
0.0128165366
0.0126040446
0.0123839877
0.0121550367
0.0119152923
0.0116621722
0.0113923562
0.0111016962
0.0107851462
0.010435638
0.0100375653
0.00959345834
0.00909351368
0.00852735674
0.00788395479
0.00713872182
0.00666615203
0.00686624351
0.00732953393
0.00789882681
0.00850213073
0.00915074921
0.00990616848
0.0108027597
0.011762921
0.0126786339
0.0134351982
0.0139432692
0.0141444414
0.0141364103
0.0140382714
0.0139419076
0.013941624
0.0141930345
0.0148528995
0.0158541564
0.0172372045
0.0190409719
0.0208695045
0.0215177332
0.0189157533
0.0145417516
0.0108959455
0.00953849655
0.0133043178
0.0124509779
0.00928262667
0.00555494264
0.00259381356
0.00108330257
0.000832105866
0.000756659502
0.000640654569
0.000531360566
0.00043957629
0.000379838643
0.000357822848
0.000372417691
0.000423509133
0.000511131355
0.000634883155
0.000791543035
0.000980120881
0.00119608248
0.00143036348
0.00167430888
0.00192673064
0.00218320761
0.00243801365
0.00270195259
0.00301732355
0.00348191448
0.00427114794
0.00525277659
0.0062123055
0.00712652381
0.00800127338
0.00883920477
0.00964296764
0.0104134646
0.0111505166
0.0118532638
0.0125178782
0.0131389431
0.0137219651
0.0142687389
0.0147798349
0.0152553885
0.0156955907
0.0161007714
0.0164713795
0.0168079488
0.0171110707
0.0173813633
0.0176194506
0.0178259619
0.0180015298
0.01814679
0.018262401
0.0183490879
0.018407718
0.0184394142
0.0184456523
0.018428248
0.0183892214
0.0183304545
0.0182534593
0.0181592073
0.0180487215
0.017923471
0.0177849466
0.0176340899
0.0174716613
0.0172982019
0.0171141201
0.0169201065
0.0167170807
0.0165060126
0.0162876831
0.0160624604
0.0158302392
0.0155904884
0.0153423383
0.0150844535
0.0148148972
0.0145310163
0.0142293716
0.0139056566
0.0135545698
0.0131687693
0.0127325476
0.0122463086
0.0116994748
0.0110800858
0.0103740207
0.0095591556
0.00901727788
0.00917527596
0.00965907448
0.0102981045
0.0110098923
0.0117989166
0.0127207686
0.0137985646
0.0149423763
0.0160315654
0.0169485484
0.0176071086
0.0179565034
0.0180911352
0.0181307205
0.0181728604
0.0183202473
0.0187390875
0.0195955215
0.0208314417
0.0224746819
0.0245350809
0.0266003464
0.0275097394
0.0251309032
0.0201749161
0.0154854328
0.0135463466
0.0170753738
0.0160276617
0.0124973984
0.00806445153
0.00417084925
0.00185292761
0.00134331089
0.0012209951
0.00104417054
0.000870889049
0.000723162406
0.000622953972
0.000581834636
0.000598577668
0.000671924857
0.000799722438
0.000978365592
0.00119973253
0.00145879026
0.00174629542
0.00204903444
0.00235729186
0.00267232208
0.00299284137
0.00331776833
0.00366548647
0.00408871624
0.00469443365
0.00565065547
0.00678768343
0.00787924511
0.00890947659
0.00988839402
0.010821478
0.0117129578
0.0125647568
0.0133774056
0.0141507696
0.0148768386
0.0155581522
0.0161981719
0.0167980802
0.0173582992
0.0178790542
0.0183606625
0.0188035793
0.0192083749
0.0195757006
0.0199062628
0.0202007926
0.0204600254
0.0206847043
0.0208755784
0.0210334022
0.0211589535
0.0212530724
0.0213167304
0.0213511417
0.0213578635
0.0213387965
0.0212960783
0.0212317432
0.0211475058
0.0210444761
0.0209239512
0.0207876495
0.0206366837
0.0204720734
0.0202946894
0.0201052018
0.0199041478
0.0196922645
0.0194704956
0.0192398276
0.0190010739
0.0187546616
0.018500556
0.018238292
0.0179670499
0.0176855376
0.0173918516
0.017083363
0.0167566418
0.016407387
0.0160302678
0.015618013
0.0151560582
0.0146426241
0.0140673857
0.0134177842
0.012678525
0.0118313809
0.0112435612
0.0113452742
0.0118214753
0.012499255
0.0132887338
0.0141863926
0.015238436
0.0164547286
0.0177354439
0.0189526201
0.0199908728
0.0207711857
0.0212526989
0.0215253053
0.0217054745
0.0218924103
0.0221921313
0.0227721007
0.0237985605
0.0252258254
0.0270699638
0.02931311
0.031542042
0.0326780985
0.0307070396
0.0257095195
0.020277927
0.0176600906
0.0207447278
0.0194431872
0.0156590554
0.0107651051
0.0061265677
0.00297434519
0.00203827031
0.0018381407
0.00158831599
0.00133414238
0.00111373648
0.000957487483
0.000886632723
0.000900276276
0.000994995262
0.00116409341
0.00139781482
0.0016806226
0.00200210959
0.00234876589
0.00270565929
0.00306506866
0.00343242459
0.00381081977
0.00420453454
0.00463834276
0.00517100337
0.00590988354
0.00700244397
0.00825489548
0.00944586737
0.010566258
0.0116282016
0.0126387029
0.0136026946
0.0145225711
0.0153991873
0.0162310912
0.017011791
0.0177458936
0.0184357088
0.0190820496
0.0196852575
0.0202456192
0.0207635399
0.0212395676
0.0216743658
0.022068679
0.0224233076
0.022739078
0.0230168216
0.0232573819
0.0234616133
0.0236303794
0.0237645681
0.0238651264
0.0239331198
0.0239698419
0.023976915
0.0239563043
0.0239102429
0.0238408963
0.0237501714
0.0236393676
0.0235102481
0.023364154
0.0232022019
0.0230254679
0.0228349191
0.0226313467
0.0224154047
0.0221878784
0.0219497282
0.0217019493
0.0214453798
0.021180503
0.0209073594
0.0206255618
0.0203343601
0.0200325335
0.0197182493
0.0193889537
0.0190412948
0.0186710643
0.0182730239
0.0178401473
0.0173594037
0.0168270098
0.016233602
0.0155665492
0.0148105817
0.0139514181
0.0133334607
0.0133790949
0.0138344483
0.0145316741
0.0153767507
0.016358466
0.0175122206
0.0188340641
0.0202159206
0.0215262534
0.0226547622
0.0235312343
0.0241245222
0.024519764
0.0248284303
0.0251491108
0.0255884586
0.0263110156
0.0274792652
0.0290600386
0.0310595862
0.033435235
0.0357772753
0.0370934158
0.0355419107
0.030826907
0.0250554062
0.0218007275
0.0243414248
0.0227334941
0.0187154187
0.0135103494
0.00836117347
0.00446880317
0.00292715762
0.00260085707
0.00226827519
0.00192124034
0.00161423392
0.0013880727
0.00127550277
0.00127755166
0.00138793306
0.00159304421
0.00187435168
0.00220769568
0.00257768105
0.00296852801
0.00336629819
0.00376705244
0.00418052394
0.00461390468
0.00507610313
0.00559624932
0.00623515482
0.0070950331
0.00829853856
0.00963981257
0.0109103006
0.0121055854
0.01323827
0.0143159147
0.0153435919
0.0163238318
0.0172577386
0.0181414933
0.0189723189
0.0197544253
0.0204894113
0.0211778592
0.02182007
0.0224163777
0.0229672573
0.0234733332
0.0239353478
0.0243541264
0.0247305534
0.0250655411
0.0253600089
0.0256148939
0.0258311498
0.0260097438
0.0261516695
0.0262579756
0.0263298168
0.0263685583
0.0263758781
0.0263537925
0.0263046158
0.0262306283
0.0261339225
0.0260162774
0.0258793278
0.0257243191
0.0255523902
0.0253646613
0.0251621856
0.0249458702
0.0247164786
0.0244748461
0.0242219462
0.0239587775
0.0236861987
0.0234047464
0.0231145385
0.022815273
0.022506282
0.0221864322
0.0218539858
0.0215064946
0.0211407263
0.0207526165
0.0203370927
0.0198874637
0.019392323
0.0188459908
0.018240637
0.0175638027
0.0168009347
0.0159412634
0.0153044189
0.015299864
0.0157291639
0.0164339515
0.0173189621
0.018366172
0.0195996774
0.0210017458
0.0224574609
0.0238346524
0.0250299332
0.0259823461
0.0266693929
0.027171385
0.0275939305
0.0280337553
0.0285966252
0.0294424109
0.0307284298
0.0324327139
0.0345532876
0.0370257125
0.0394450435
0.0408984629
0.0397144094
0.0354036937
0.0296290367
0.0259006226
0.0278641876
0.0259391268
0.0216851678
0.0162184959
0.0107614931
0.00631146517
0.00402338779
0.00348736979
0.00305980382
0.002614548
0.00221300335
0.00190776224
0.00174269401
0.00172287645
0.00183940485
0.00207040013
0.00238720513
0.00275738569
0.00316192139
0.00358471623
0.00401433239
0.00445085164
0.00490753672
0.00539481373
0.00592504854
0.00652977682
0.00726897932
0.00823703136
0.00953253868
0.0109459851
0.0122840701
0.0135450916
0.014741103
0.015879618
0.0169655266
0.0180012946
0.0189881765
0.0199198441
0.0207976185
0.0216244189
0.0224013763
0.0231289247
0.0238073481
0.0244370224
0.0250184827
0.0255524215
0.0260396533
0.0264810777
0.026877658
0.0272303878
0.02754027
0.0278083317
0.0280356225
0.0282232108
0.0283721929
0.0284837174
0.0285590242
0.0285995469
0.0286070129
0.0285834804
0.0285313341
0.028452956
0.0283507963
0.0282268513
0.0280826111
0.0279193307
0.027738164
0.0275402662
0.02732677
0.0270986944
0.0268569084
0.0266022985
0.0263358496
0.0260585606
0.0257713073
0.0254746778
0.0251688691
0.0248536689
0.0245285004
0.0241923301
0.0238435306
0.0234797803
0.0230979937
0.0226942842
0.0222637925
0.0218002069
0.0212937659
0.0207368537
0.0201237084
0.0194421074
0.0186785959
0.0178253749
0.0171779761
0.0171307612
0.0175330033
0.0182380923
0.019151802
0.0202502895
0.0215462429
0.0230085065
0.0245167571
0.0259406628
0.0271849597
0.0281978014
0.0289639857
0.0295589254
0.0300819296
0.0306271611
0.0312985671
0.0322506539
0.0336351153
0.0354393895
0.0376543076
0.0401965877
0.0426672379
0.044223096
0.0433425849
0.0394457002
0.0338756338
0.0298707932
0.0312766295
0.0290670806
0.0245998928
0.0188607337
0.0132268558
0.00843085716
0.00535459084
0.00447593047
0.00393162626
0.00338643105
0.00288857277
0.00250090423
0.00227581543
0.00222419005
0.0023357238
0.00258040018
0.00291959462
0.00331386353
0.00374186179
0.00418826163
0.00464443941
0.00511393261
0.00561259098
0.00615316669
0.00675034767
0.00743652326
0.00826904217
0.00933361101
0.0107075465
0.0121828311
0.0135812163
0.0149022587
0.0161569009
0.0173522511
0.0184928358
0.0195809245
0.0206170833
0.021594881
0.0225172777
0.0233863724
0.0242029786
0.0249674336
0.0256800192
0.0263411509
0.0269514198
0.0275115825
0.0280225224
0.0284852108
0.0289006869
0.0292700239
0.0295943058
0.0298746477
0.030112194
0.0303081125
0.0304636014
0.030579908
0.0306583567
0.0307004468
0.0307079519
0.0306829648
0.0306279335
0.0305454027
0.0304382024
0.0303082827
0.030157156
0.0299860875
0.0297962406
0.0295887991
0.0293649697
0.0291258803
0.0288725042
0.0286057802
0.0283267037
0.0280362716
0.0277353736
0.0274246486
0.0271043737
0.0267744308
0.0264343409
0.0260831791
0.0257194407
0.0253409456
0.0249447749
0.0245272438
0.0240837388
0.0236083447
0.0230924952
0.0225278953
0.0219099652
0.0212271183
0.0204672049
0.0196248786
0.0189732665
0.0188909173
0.0192672571
0.0199683037
0.0209025101
0.0220410939
0.023385396
0.0248914528
0.0264351027
0.0278899883
0.0291697268
0.0302310832
0.0310647425
0.0317411225
0.0323530238
0.0329916847
0.0337586019
0.0348026627
0.0362697826
0.0381549407
0.0404424291
0.043033066
0.0455361963
0.0471679278
0.0465324338
0.043011871
0.0377452503
0.033630882
0.0345342738
0.0320978053
0.0274739931
0.0214410928
0.0156864024
0.0107167553
0.00695477152
0.00555834216
0.00485927069
0.00421040088
0.00361929353
0.00314993787
0.00286075135
0.00276904155
0.00286472388
0.0031110723
0.00346076986
0.00386882954
0.00431236701
0.00477710365
0.00525689687
0.00575796489
0.0062979264
0.00689107989
0.00755348213
0.008317255
0.00923613671
0.0103873295
0.0118300456
0.013360666
0.0148147398
0.0161920954
0.0175022778
0.0187517711
0.0199446351
0.0210829016
0.0221659121
0.0231883904
0.0241536625
0.0250632623
0.02591778
0.0267174899
0.0274626814
0.02815381
0.028791521
0.0293766344
0.0299101015
0.0303929639
0.0308263365
0.0312113715
0.0315492327
0.0318411228
0.0320882804
0.0322919728
0.0324534999
0.0325742081
0.0326555055
0.0326989573
0.0327063814
0.0326798995
0.0326220225
0.0325356309
0.0324235866
0.0322879327
0.0321302229
0.0319517341
0.0317536345
0.031537131
0.0313034997
0.0310539764
0.0307896385
0.0305114785
0.0302205016
0.0299177003
0.0296039766
0.0292800187
0.0289461862
0.0286024582
0.0282484599
0.0278833824
0.0275058526
0.027113844
0.0267046195
0.0262747138
0.025819783
0.0253343148
0.0248106612
0.0242405462
0.0236201305
0.0229386554
0.0221853607
0.0213568976
0.0207059926
0.0205954285
0.0209480859
0.0216426062
0.022591196
0.0237608
0.0251415423
0.0266775199
0.0282424641
0.0297158291
0.031020492
0.0321211001
0.033012852
0.0337610645
0.0344519472
0.0351736697
0.0360247844
0.0371484597
0.0386847133
0.0406342961
0.0429754137
0.0455961646
0.0481186072
0.0498075479
0.0493638925
0.0461717096
0.0412388697
0.0371316031
0.0376038569
0.0350038309
0.0302997174
0.0239780527
0.0181046464
0.0130603775
0.00881447093
0.00675426902
0.00583339684
0.00507245099
0.00439023534
0.003841171
0.00348593406
0.00334764225
0.00341782451
0.0036551337
0.00400538782
0.00441934476
0.00487288867
0.00535260381
0.00585426557
0.00638604149
0.00696667218
0.00761137233
0.00833681774
0.00917410727
0.0101729406
0.0114026251
0.0129072251
0.0144890122
0.0159957776
0.0174269766
0.0187906205
0.0200924304
0.0213359337
0.0225229753
0.0236511276
0.0247171387
0.0257239618
0.026672712
0.0275638178
0.0283975134
0.0291741032
0.0298940843
0.0305581567
0.0311672045
0.0317222477
0.0322243978
0.0326748467
0.0330748258
0.0334255784
0.033728395
0.0339846094
0.0341955886
0.0343627347
0.0344874947
0.0345713612
0.0346159661
0.0346231711
0.0345951227
0.034534504
0.0344443825
0.0343276277
0.0341864115
0.0340223433
0.0338367127
0.0336306888
0.0334054964
0.0331624778
0.0329029764
0.0326281747
0.0323391204
0.0320368285
0.0317222844
0.0313964003
0.0310599136
0.0307132682
0.0303565448
0.0299894773
0.0296113791
0.0292210168
0.0288165271
0.0283953667
0.0279543037
0.0274892818
0.0269951933
0.0264651479
0.0258912351
0.0252701722
0.0245921058
0.0238476685
0.0230351231
0.0223888013
0.0222561604
0.0225878174
0.0232745134
0.0242328148
0.0254258106
0.026832582
0.0283864299
0.0299608475
0.0314426347
0.0327639696
0.0338964998
0.0348386394
0.0356505072
0.0364117117
0.0372073539
0.038132583
0.0393247662
0.0409178096
0.042916596
0.0452936821
0.0479281166
0.0504615275
0.0521969356
0.0519022991
0.0489889299
0.0443831519
0.0403549116
0.040468201
0.0377622783
0.0330555205
0.0264902551
0.0204754974
0.0153785952
0.0108890344
0.00810299368
0.00686223983
0.00596952413
0.00519480175
0.00456695649
0.0041442442
0.00395405244
0.00399037175
0.00420938807
0.00455199026
0.00496570772
0.00542520803
0.00591754706
0.00643982292
0.00700152636
0.00762201384
0.00831691717
0.0091029643
0.0100097547
0.0110828594
0.0123844438
0.0139459497
0.0155761933
0.0171336708
0.0186170508
0.0200327558
0.0213856494
0.0226786727
0.0239136297
0.0250856429
0.0261943039
0.0272416737
0.0282285413
0.0291552158
0.030021908
0.0308289434
0.0315768632
0.032266424
0.032898576
0.0334744093
0.0339951067
0.034461938
0.0348762158
0.0352392629
0.0355524587
0.0358172332
0.0360350544
0.0362074283
0.036335904
0.0364220606
0.0364675981
0.0364744236
0.0364447485
0.0363814577
0.0362876529
0.0361662665
0.0360196021
0.0358493352
0.0356567691
0.0354430699
0.0352094761
0.0349573928
0.0346882723
0.0344034042
0.0341038937
0.0337907642
0.0334649921
0.0331274972
0.0327790665
0.0324202309
0.0320511764
0.0316717506
0.0312813943
0.0308790207
0.0304629376
0.0300308058
0.0295796382
0.0291056794
0.0286042265
0.0280690496
0.0274927684
0.0268725846
0.0261995714
0.0254657059
0.0246705409
0.0240318931
0.0238825288
0.0241959914
0.0248743066
0.0258386302
0.0270483601
0.0284717715
0.0300328072
0.0316066723
0.0330887219
0.0344201737
0.0355786974
0.0365647177
0.037433087
0.0382568373
0.0391181009
0.0401081244
0.0413583151
0.0429960585
0.0450290137
0.047425335
0.0500591617
0.052598593
0.0543769601
0.0541979691
0.0515167411
0.0472137059
0.0433041361
0.0431233802
0.0403590757
0.035716432
0.0289871507
0.0227917144
0.0176759732
0.0131102414
0.00965968494
0.00796743085
0.00690737286
0.00603333266
0.00532523756
0.0048329654
0.00458600122
0.00458103951
0.00477365458
0.00510160364
0.00550999996
0.0059721736
0.00647519585
0.00701692753
0.00760765375
0.0082669426
0.00901045016
0.00985454049
0.0108270373
0.0119694856
0.0133376565
0.0149524469
0.0166293819
0.0182362662
0.0197707208
0.0212375664
0.0226407391
0.0239825277
0.0252642071
0.0264798275
0.0276304837
0.0287176432
0.0297418395
0.0307032925
0.0316022021
0.0324389204
0.0332140368
0.0339283664
0.0345829287
0.0351788864
0.0357174948
0.0362001039
0.03662811
0.0370029157
0.0373259909
0.0375988637
0.037823105
0.0380003262
0.0381321822
0.0382203396
0.0382665704
0.0382728347
0.0382414983
0.0381755227
0.0380780361
0.0379520488
0.0377999986
0.0376236363
0.0374242798
0.0372030885
0.0369613098
0.0367004098
0.0364219508
0.0361273335
0.0358177226
0.0354941489
0.0351575766
0.0348089312
0.0344490493
0.0340785526
0.0336977363
0.033306566
0.032904615
0.0324909486
0.032064053
0.0316218012
0.0311614609
0.0306795876
0.0301718829
0.0296327151
0.0290553041
0.0284373063
0.0277707147
0.0270487711
0.0262720519
0.0256435675
0.0254821071
0.0257801132
0.0264499312
0.0274172302
0.0286376482
0.0300690065
0.0316276278
0.033192381
0.0346680405
0.0360043317
0.0371839182
0.0382081355
0.0391265461
0.0400056346
0.0409247352
0.0419705681
0.0432682524
0.0449381689
0.0469914843
0.0494193767
0.0520820883
0.0545911265
0.05637765
0.0562889475
0.0537979652
0.0497664973
0.0459941464
0.0455741352
0.0427884204
0.03826091
0.0314665545
0.0250301493
0.0199309783
0.0154219492
0.0114677886
0.00918262193
0.00789878306
0.00691135025
0.00611830078
0.00555296234
0.005244175
0.00519100743
0.00534981456
0.00565677496
0.00605525623
0.00651709114
0.00702890769
0.00758881691
0.00820744265
0.00890423046
0.009694551
0.0105941064
0.0116288051
0.0128363675
0.0142668503
0.0159322844
0.0176547845
0.019310239
0.0208950623
0.0224124821
0.0238654533
0.0252555611
0.0265832143
0.0278422256
0.0290344016
0.0301607871
0.0312217109
0.0322173263
0.0331478331
0.0340136148
0.0348153132
0.0355538054
0.0362301835
0.0368456861
0.0374016423
0.0378994857
0.0383406989
0.0387267649
0.0390592465
0.0393397725
0.0395700188
0.0397517047
0.0398865944
0.0399764447
0.0400231033
0.0400286297
0.0399955578
0.0399268402
0.039825631
0.0396950275
0.0395376067
0.0393552018
0.039149146
0.0389205881
0.0386707807
0.0384012486
0.0381136669
0.0378095517
0.0374901297
0.0371564377
0.036809424
0.0364500173
0.036079105
0.0356974033
0.0353053213
0.0349029468
0.0344899893
0.0340656713
0.0336286636
0.0331770593
0.0327083885
0.0322195261
0.0317065767
0.0311644649
0.03058703
0.0299723675
0.0293133654
0.0286044323
0.0278469506
0.0272306494
0.0270610711
0.0273461803
0.0280076131
0.0289752199
0.0302006151
0.031631703
0.0331792114
0.0347275342