/*--------------------------------*- C++ -*----------------------------------*\
| =========                 |                                                 |
| \\      /  F ield         | OpenFOAM: The Open Source CFD Toolbox           |
|  \\    /   O peration     | Version:  2506                                  |
|   \\  /    A nd           | Website:  www.openfoam.com                      |
|    \\/     M anipulation  |                                                 |
\*---------------------------------------------------------------------------*/
FoamFile
{
    version     2.0;
    format      ascii;
    arch        "LSB;label=32;scalar=64";
    class       volScalarField;
    location    "2644";
    object      nut;
}
// * * * * * * * * * * * * * * * * * * * * * * * * * * * * * * * * * * * * * //

dimensions      [0 2 -1 0 0 0 0];

internalField   nonuniform List<scalar> 
15600
(
2.28886365e-09
2.90460566e-09
1.30646639e-09
7.19395471e-11
4.97725079e-10
4.46924332e-10
2.68079094e-10
2.28833928e-10
1.99327208e-10
1.78114388e-10
1.60633521e-10
1.59260843e-10
1.69273467e-10
1.96124992e-10
2.46209337e-10
3.26080953e-10
4.31031e-10
5.54282298e-10
6.92641399e-10
8.30823402e-10
9.48936446e-10
1.04724033e-09
1.1361971e-09
1.2010973e-09
1.23829246e-09
1.27343635e-09
1.25375206e-09
1.60074045e-09
2.82724354e-09
4.4270044e-09
5.96707909e-09
7.51513556e-09
8.9799358e-09
1.03556777e-08
1.16190373e-08
1.27598684e-08
1.3765046e-08
1.46261496e-08
1.53379179e-08
1.58992485e-08
1.63113935e-08
1.65793519e-08
1.67068086e-08
1.6701222e-08
1.65723524e-08
1.63312782e-08
1.5989943e-08
1.55607541e-08
1.50562386e-08
1.44887519e-08
1.38702771e-08
1.32123071e-08
1.25257513e-08
1.18208766e-08
1.11072872e-08
1.03939123e-08
9.68897194e-09
8.99988911e-09
8.33309496e-09
7.69372305e-09
7.08543954e-09
6.51040441e-09
5.96970476e-09
5.46386429e-09
4.99315125e-09
4.55743529e-09
4.15580851e-09
3.78689168e-09
3.44877409e-09
3.13981602e-09
2.85785617e-09
2.60175678e-09
2.36954913e-09
2.15966229e-09
1.97002097e-09
1.79872984e-09
1.64790093e-09
1.69067069e-09
1.74057915e-09
1.7835831e-09
1.81723574e-09
1.83840602e-09
1.84337668e-09
1.8274024e-09
1.78561794e-09
1.71221097e-09
1.60923502e-09
1.46784308e-09
1.29150632e-09
1.07677491e-09
8.47571201e-10
5.98667893e-10
7.14231985e-10
8.5620027e-10
8.886208e-10
8.81617055e-10
7.98058193e-10
7.34823571e-10
8.8520471e-10
1.13897035e-09
1.54708865e-09
2.17661903e-09
3.07529616e-09
4.23638064e-09
5.42307827e-09
6.39722862e-09
7.20267112e-09
7.93240843e-09
8.71075896e-09
9.75990741e-09
1.17530285e-08
1.5224147e-08
2.03877754e-08
2.88381015e-08
4.20882609e-08
5.80459523e-08
5.2958041e-08
2.60949537e-08
7.23650361e-09
2.27908898e-09
3.49179116e-08
3.2522661e-08
1.9533816e-08
8.42482735e-09
3.12537673e-09
1.51324132e-09
1.23205882e-09
1.09811118e-09
9.55567259e-10
8.53710033e-10
7.81042164e-10
7.68394681e-10
8.27119707e-10
9.76547432e-10
1.24633615e-09
1.66957746e-09
2.27547633e-09
3.10625815e-09
4.22807001e-09
5.69569892e-09
7.54836148e-09
9.83402283e-09
1.25756099e-08
1.56575906e-08
1.88635219e-08
2.20720312e-08
2.53642233e-08
3.00936804e-08
4.05024994e-08
5.57607992e-08
7.22609735e-08
8.96217154e-08
1.07657142e-07
1.26224604e-07
1.45198894e-07
1.64453335e-07
1.83836794e-07
2.03193238e-07
2.22380644e-07
2.41301124e-07
2.59868037e-07
2.78107028e-07
2.95581018e-07
3.12173229e-07
3.2781358e-07
3.42426943e-07
3.55953648e-07
3.68347724e-07
3.79574863e-07
3.89610042e-07
3.9843509e-07
4.06037477e-07
4.12409438e-07
4.1754742e-07
4.21453487e-07
4.24138906e-07
4.25630858e-07
4.25980295e-07
4.25267826e-07
4.23598217e-07
4.21082694e-07
4.17814761e-07
4.13850961e-07
4.09230003e-07
4.0400013e-07
3.98243474e-07
3.92034493e-07
3.8544028e-07
3.78486287e-07
3.71227422e-07
3.63614717e-07
3.55756474e-07
3.47659703e-07
3.39423381e-07
3.31067794e-07
3.22609759e-07
3.14029655e-07
3.05438246e-07
2.96628268e-07
2.87518347e-07
2.78015804e-07
2.67999909e-07
2.57330078e-07
2.4583768e-07
2.33355594e-07
2.19677275e-07
2.05395095e-07
1.89892481e-07
1.73076213e-07
1.54829276e-07
1.35383936e-07
1.13431213e-07
1.01341771e-07
1.08859272e-07
1.20047601e-07
1.29611435e-07
1.34573188e-07
1.36000256e-07
1.36913448e-07
1.39714798e-07
1.43239302e-07
1.45821856e-07
1.4521615e-07
1.40111594e-07
1.29396595e-07
1.16070085e-07
1.02855395e-07
9.10621265e-08
8.1469927e-08
7.52678388e-08
7.42330963e-08
7.79420607e-08
8.74561004e-08
1.06509671e-07
1.34981305e-07
1.55703718e-07
1.31275155e-07
8.32902601e-08
4.66769602e-08
3.51112498e-08
7.29601237e-07
6.64678267e-07
4.0400563e-07
1.85567711e-07
6.17913767e-08
2.58734518e-08
2.25884839e-08
2.04426297e-08
1.78449311e-08
1.59576797e-08
1.46345987e-08
1.43292777e-08
1.53923617e-08
1.81618723e-08
2.31728196e-08
3.10367555e-08
4.25019822e-08
5.8633034e-08
8.09719752e-08
1.11066415e-07
1.50213632e-07
1.99443672e-07
2.59091004e-07
3.26937296e-07
3.98089719e-07
4.69038334e-07
5.41586885e-07
6.35305365e-07
8.38097237e-07
1.14386635e-06
1.47902838e-06
1.83309466e-06
2.2038113e-06
2.58813126e-06
2.98381606e-06
3.38835564e-06
3.79873672e-06
4.21171743e-06
4.6242739e-06
5.03430099e-06
5.4398543e-06
5.83861129e-06
6.21885563e-06
6.58249743e-06
6.92764166e-06
7.25248e-06
7.5555149e-06
7.83552824e-06
8.09154423e-06
8.32278458e-06
8.52862228e-06
8.70855943e-06
8.86221154e-06
8.98929825e-06
9.08967468e-06
9.163409e-06
9.21092534e-06
9.2331731e-06
9.23175359e-06
9.20880973e-06
9.16665759e-06
9.1072686e-06
9.03186376e-06
8.94128136e-06
8.83657443e-06
8.71950667e-06
8.59170851e-06
8.4546642e-06
8.30897381e-06
8.1559205e-06
7.99447383e-06
7.82705373e-06
7.65381329e-06
7.47695205e-06
7.29705335e-06
7.11435429e-06
6.928498e-06
6.73881754e-06
6.54417888e-06
6.34311007e-06
6.13366201e-06
5.91328897e-06
5.67899941e-06
5.42721635e-06
5.1543197e-06
4.85553698e-06
4.53854723e-06
4.19512447e-06
3.82335802e-06
3.42070472e-06
2.99233826e-06
2.50888227e-06
2.24311931e-06
2.42113529e-06
2.67145905e-06
2.88209116e-06
2.99271684e-06
3.02598318e-06
3.04454058e-06
3.10008414e-06
3.16597773e-06
3.20394911e-06
3.16575436e-06
3.02470408e-06
2.76507616e-06
2.45422198e-06
2.14885759e-06
1.87576815e-06
1.65004291e-06
1.49339658e-06
1.43044184e-06
1.44354637e-06
1.55054075e-06
1.79741486e-06
2.15066817e-06
2.30118041e-06
1.83476708e-06
1.27862622e-06
8.57874182e-07
7.23130309e-07
5.694221e-06
5.21857524e-06
3.16302486e-06
1.48493374e-06
5.14116331e-07
2.14544169e-07
1.85558767e-07
1.68984841e-07
1.48119251e-07
1.32627516e-07
1.21549152e-07
1.18492491e-07
1.26493142e-07
1.48339807e-07
1.88298175e-07
2.51319387e-07
3.43703307e-07
4.74149063e-07
6.55358712e-07
9.00459117e-07
1.22039131e-06
1.62268015e-06
2.10971785e-06
2.66363716e-06
3.24187213e-06
3.80900778e-06
4.36529398e-06
5.0545699e-06
6.61045309e-06
9.00595178e-06
1.16412206e-05
1.44210835e-05
1.73297185e-05
2.03421735e-05
2.34415704e-05
2.66085572e-05
2.98198405e-05
3.30500086e-05
3.62752311e-05
3.94801567e-05
4.26536035e-05
4.56643824e-05
4.85449586e-05
5.12949105e-05
5.39005452e-05
5.63495434e-05
5.86318507e-05
6.0739412e-05
6.26658797e-05
6.44062754e-05
6.59566582e-05
6.73139688e-05
6.84759138e-05
6.94409006e-05
7.020825e-05
7.07787341e-05
7.11555599e-05
7.13455638e-05
7.1360107e-05
7.12143559e-05
7.09247916e-05
7.05055518e-05
6.99656384e-05
6.93111467e-05
6.85496818e-05
6.76936873e-05
6.67548473e-05
6.57439061e-05
6.46652426e-05
6.35289206e-05
6.23271499e-05
6.10781686e-05
5.97854715e-05
5.84596065e-05
5.71074533e-05
5.57311773e-05
5.43285391e-05
5.28941453e-05
5.14207515e-05
4.98977983e-05
4.83109743e-05
4.66414469e-05
4.48666903e-05
4.29596348e-05
4.08918244e-05
3.862292e-05
3.6140105e-05
3.34449628e-05
3.05221058e-05
2.73513261e-05
2.39706235e-05
2.01518662e-05
1.8112847e-05
1.96704956e-05
2.16735075e-05
2.33105814e-05
2.41728042e-05
2.4440766e-05
2.45896232e-05
2.49934462e-05
2.54492425e-05
2.56580618e-05
2.52670871e-05
2.40884681e-05
2.2032472e-05
1.95917763e-05
1.71873278e-05
1.50271518e-05
1.32325928e-05
1.19719811e-05
1.14183318e-05
1.14377621e-05
1.21511293e-05
1.38410602e-05
1.62009668e-05
1.70791406e-05
1.32853803e-05
9.11119988e-06
6.24498699e-06
5.48486276e-06
2.41953191e-05
2.26410418e-05
1.39310059e-05
6.76365898e-06
2.5186784e-06
1.06414936e-06
9.07734463e-07
8.32440751e-07
7.33129841e-07
6.57505092e-07
6.02098113e-07
5.84058741e-07
6.18810036e-07
7.20043728e-07
9.07785143e-07
1.20562166e-06
1.64444164e-06
2.26537898e-06
3.12916687e-06
4.29944118e-06
5.82688068e-06
7.73862858e-06
1.00392621e-05
1.26361749e-05
1.53027635e-05
1.78220398e-05
2.0138271e-05
2.29744243e-05
2.97524382e-05
4.03270654e-05
5.19121937e-05
6.40133068e-05
7.65481859e-05
8.93930324e-05
0.000102468689
0.000115687324
0.000128948364
0.000142145408
0.000155181879
0.000168011351
0.000180250308
0.000191700315
0.000202574351
0.000212863768
0.000222532778
0.000231551819
0.000239899046
0.000247559044
0.000254521578
0.000260780262
0.000266331358
0.000271173224
0.000275305892
0.000278730831
0.00028145161
0.000283475631
0.000284817316
0.000285502114
0.000285569614
0.000285071491
0.000284063775
0.000282594692
0.000280695555
0.000278386736
0.00027569329
0.000272655662
0.000269312374
0.000265699226
0.000261829903
0.000257741841
0.00025342382
0.00024890298
0.000244207524
0.000239371001
0.000234417828
0.00022935599
0.000224178054
0.00021886489
0.000213390539
0.000207716503
0.000201789654
0.000195539275
0.00018887871
0.000181702277
0.000173893053
0.000165283924
0.000155472031
0.000144725928
0.000132954048
0.000120049619
0.000106108991
9.02189982e-05
8.19420435e-05
8.91304615e-05
9.76907154e-05
0.000104448403
0.000108054394
0.000109263547
0.000109942299
0.00011149995
0.000113131886
0.000113625909
0.000111644776
0.000106488358
9.7850495e-05
8.75884699e-05
7.73622447e-05
6.80559043e-05
6.02262444e-05
5.46277433e-05
5.19856399e-05
5.1759947e-05
5.43969314e-05
6.08599701e-05
6.97291707e-05
7.272115e-05
5.56774217e-05
3.69126899e-05
2.5164292e-05
2.26098426e-05
6.76799186e-05
6.50099959e-05
4.15996631e-05
2.12360019e-05
8.76041225e-06
3.83523369e-06
3.2358431e-06
2.99268588e-06
2.65038354e-06
2.38152956e-06
2.17889054e-06
2.10134903e-06
2.20619094e-06
2.54214951e-06
3.17677543e-06
4.19053735e-06
5.69111516e-06
7.81546477e-06
1.07670435e-05
1.47556033e-05
1.99274163e-05
2.63166934e-05
3.38804456e-05
4.22378229e-05
5.05275474e-05
5.79158484e-05
6.42950691e-05
7.24428003e-05
9.27418996e-05
0.000124182016
0.0001579417
0.000192357689
0.000227159143
0.000262000011
0.000296692022
0.000331036295
0.000364815765
0.000397809368
0.000429818052
0.000460486634
0.000488731489
0.000515095491
0.000539873692
0.00056307228
0.000584660386
0.000604618519
0.000622939883
0.000639627443
0.000654691304
0.000668146013
0.000680008244
0.000690295935
0.000699027626
0.000706222121
0.000711899919
0.000716086789
0.000718820226
0.000720157877
0.000720184312
0.000719007614
0.000716744694
0.000713496312
0.000709328799
0.000704283168
0.000698409189
0.000691786545
0.000684492054
0.000676597642
0.000668169505
0.000659218948
0.000649749112
0.000639804328
0.000629446946
0.000618743637
0.000607744176
0.000596464704
0.00058488855
0.000572973213
0.00056065989
0.000547861355
0.000534455954
0.000520280476
0.00050513116
0.000488756264
0.000470865722
0.000451038763
0.000427775603
0.000401923906
0.000373202466
0.000341243362
0.000306046875
0.000265401226
0.000244334011
0.000263834914
0.000286556809
0.000304207263
0.000314046824
0.000317952783
0.000320398399
0.000324644262
0.000328683566
0.000329493888
0.000323929173
0.000310307106
0.000287824671
0.000260799488
0.000233336774
0.000207816656
0.000185908186
0.000169913545
0.000162032018
0.00016094134
0.000167784997
0.000184849247
0.000207997855
0.000215692559
0.000165787042
0.000106361057
7.04893242e-05
6.27093508e-05
0.000143129105
0.000139469268
9.37200286e-05
5.07246512e-05
2.35639667e-05
1.11123078e-05
9.33518413e-06
8.72524731e-06
7.77996044e-06
7.00702058e-06
6.40462834e-06
6.13402123e-06
6.36958444e-06
7.25084072e-06
8.95929926e-06
1.17114265e-05
1.57987767e-05
2.15688002e-05
2.95337677e-05
4.01834838e-05
5.37523336e-05
7.00875005e-05
8.88368957e-05
0.000108789288
0.000127622789
0.000143417082
0.00015677588
0.000175373355
0.000221510776
0.000290758396
0.000362637674
0.000433549581
0.000503163296
0.000571059607
0.000637126685
0.000701204878
0.000763086735
0.000822545837
0.0008794565
0.00093174018
0.000979961871
0.00102480874
0.00106664924
0.00110553945
0.00114149225
0.00117453257
0.00120469857
0.0012320375
0.00125660224
0.00127844751
0.0012976268
0.0013141916
0.00132819082
0.00133967057
0.00134867657
0.00135525996
0.00135948739
0.00136145481
0.0013612988
0.00135919222
0.00135532254
0.00134985181
0.00134288816
0.00133449527
0.00132474974
0.00131377292
0.00130170225
0.00128866232
0.00127470706
0.00125985958
0.00124413698
0.00122760185
0.0012103519
0.00119248976
0.00117409282
0.00115518597
0.00113574092
0.00111568624
0.00109492148
0.00107329795
0.00105060706
0.00102656781
0.00100082554
0.000972939203
0.000942387443
0.000908409602
0.000868079783
0.000822628919
0.000771532885
0.000713983704
0.000649579703
0.000574612469
0.00053491094
0.000570081176
0.000613315585
0.00064761353
0.00066822134
0.000678277135
0.000685484078
0.00069527362
0.000703905831
0.000705890727
0.000695815597
0.000670687276
0.00062889713
0.000577812334
0.00052485799
0.000474642546
0.000430715917
0.000398187923
0.000382103837
0.000380241954
0.000394859512
0.000430116668
0.000477115892
0.000493395614
0.000388869805
0.000246796476
0.00015792551
0.000135435385
0.000255772174
0.000248247317
0.000173426022
9.88657517e-05
5.13352441e-05
2.72111446e-05
2.30784456e-05
2.1862252e-05
1.96655674e-05
1.77664679e-05
1.62262758e-05
1.54149695e-05
1.57996199e-05
1.77210172e-05
2.159057e-05
2.78886933e-05
3.72499778e-05
5.03571768e-05
6.81897314e-05
9.15253558e-05
0.000120368549
0.000153789063
0.00019056847
0.000227945883
0.000261532749
0.000288694118
0.000312623971
0.000348791219
0.000433958443
0.000555863292
0.000677841343
0.000794629113
0.000906488433
0.00101342368
0.00111575594
0.00121360651
0.00130695021
0.00139565669
0.00147881491
0.00155450743
0.00162441393
0.00168929905
0.00174958662
0.00180539707
0.0018568048
0.00190389421
0.0019467609
0.0019855068
0.00202023624
0.00205105135
0.00207804834
0.00210131729
0.00212094165
0.00213699829
0.00214956098
0.00215870837
0.00216453791
0.00216718531
0.00216684092
0.00216374499
0.00215815956
0.00215031223
0.00214035747
0.00212838233
0.00211449088
0.00209887374
0.00208172184
0.00206315592
0.00204325722
0.00202206337
0.00199960499
0.00197596331
0.00195127001
0.00192566362
0.00189924958
0.00187206231
0.00184406167
0.00181514559
0.00178516791
0.00175391245
0.00172107458
0.00168624304
0.0016488952
0.00160837932
0.00156391207
0.00151435291
0.00145551379
0.00138845599
0.00131241533
0.00122603925
0.00112825899
0.00101410805
0.000951000275
0.000999461238
0.00106614528
0.00112182281
0.00115828245
0.00117942066
0.00119607048
0.00121561346
0.00123217592
0.00123746392
0.00122375697
0.00118667592
0.00112367701
0.00104527906
0.00096264211
0.000883070719
0.000812589744
0.000760198216
0.000735077816
0.000734297295
0.000761403485
0.000822395148
0.000901564647
0.000929992113
0.000758532744
0.000490343863
0.000307173924
0.000251851316
0.000415033504
0.000395823987
0.000282331936
0.000166729722
9.42271786e-05
5.75019537e-05
5.04002216e-05
4.85902062e-05
4.42326406e-05
4.01444654e-05
3.66662365e-05
3.45210823e-05
3.48635977e-05
3.84291642e-05
4.60325211e-05
5.85684938e-05
7.71518293e-05
0.000102791228
0.000136874663
0.000180095106
0.000231455038
0.0002884144
0.000348407784
0.000406846726
0.000457614278
0.000498717758
0.000537890003
0.00059974378
0.000734476661
0.000917707903
0.00109556885
0.00126227479
0.00141934903
0.00156762782
0.00170808296
0.00184124053
0.0019673393
0.00208653614
0.00219581262
0.00229593218
0.00238852204
0.00247439044
0.00255400288
0.00262754652
0.00269516221
0.00275699807
0.00281321059
0.00286395924
0.00290940219
0.00294969094
0.00298496607
0.00301535761
0.00304098486
0.00306195657
0.0030783755
0.00309034858
0.00309800428
0.00310151805
0.00310113406
0.00309716033
0.00308993528
0.00307975477
0.0030668235
0.00305125265
0.00303319739
0.00301292138
0.00299059799
0.00296638648
0.00294039764
0.00291268697
0.00288329931
0.0028523349
0.00281995731
0.00278633986
0.00275161586
0.00271583041
0.00267893282
0.0026407909
0.00260121159
0.00255990886
0.00251647797
0.0024703717
0.0024208913
0.00236716461
0.0023081311
0.00224225875
0.00216445022
0.00207503165
0.00197302662
0.00185648141
0.00172350019
0.00156824955
0.00147779302
0.00153378884
0.00162367226
0.00170392542
0.00176104165
0.00179867518
0.0018301566
0.00186423545
0.00189260277
0.00190403918
0.00188871217
0.0018409646
0.0017573705
0.00165143674
0.00153818194
0.00142791107
0.00132955567
0.00125673969
0.0012236383
0.00122693765
0.0012713023
0.0013639107
0.00148068576
0.00152360004
0.00128365273
0.000860949888
0.000540421017
0.000427186841
0.000634527952
0.00059140772
0.000424248624
0.000254814843
0.000152132102
0.000105052214
9.81944063e-05
9.7251623e-05
9.00058723e-05
8.22735862e-05
7.52794833e-05
7.02605602e-05
6.98633685e-05
7.55364204e-05
8.87294534e-05
0.000110846736
0.000143441171
0.000187511544
0.000244403643
0.000313956384
0.000393260365
0.000477644196
0.000563235623
0.00064406429
0.000713386201
0.000771332269
0.000831173689
0.000926329969
0.00111715241
0.00136478277
0.00160008362
0.00181778522
0.00202093378
0.00221133083
0.00239062979
0.00255976796
0.00271922634
0.002868664
0.003004916
0.00313030332
0.00324640281
0.00335405003
0.00345374708
0.00354574785
0.003630261
0.00370749961
0.00377768206
0.00384102605
0.0038977442
0.00394803787
0.0039920923
0.0040300779
0.00406215028
0.00408845059
0.00410911112
0.00412426742
0.00413407885
0.00413875999
0.00413860796
0.00413399768
0.0041253444
0.00411301374
0.00409726426
0.00407824201
0.00405619217
0.00403135063
0.00400392234
0.00397410424
0.00394203879
0.00390780305
0.00387145776
0.00383312242
0.0037929901
0.00375126702
0.00370811368
0.00366358714
0.0036176283
0.00357007678
0.00352069318
0.0034691215
0.00341485585
0.00335721122
0.00329530992
0.00322805596
0.00315410563
0.00307154141
0.00297471785
0.00286274599
0.00273452118
0.00258743967
0.00241871187
0.00222202844
0.00210117594
0.00215805037
0.00226867588
0.0023749991
0.00245667269
0.00251588595
0.00256748349
0.00262077654
0.00266478576
0.00268538952
0.00267093625
0.00261467833
0.00251243925
0.00238040716
0.00223739444
0.00209691688
0.0019711468
0.00187879136
0.00183947889
0.00184989329
0.00191547284
0.00204367968
0.00220124295
0.00226054237
0.00195632271
0.00136822105
0.000876853299
0.000678865215
0.000928371581
0.000846702227
0.000606086188
0.000364764523
0.000224319105
0.000168244403
0.000170102289
0.000176253849
0.000166817934
0.000154130119
0.000141553766
0.000131325725
0.000128682971
0.000136394446
0.000156853039
0.000191921096
0.000243222654
0.000311026464
0.000395879279
0.000495936587
0.000605824098
0.000718827134
0.000830284273
0.000933693612
0.00102288648
0.00110106457
0.00118703308
0.00132172816
0.00157182691
0.00188367631
0.00217601247
0.00244460295
0.00269392871
0.00292670572
0.00314520149
0.00335072241
0.0035440333
0.00372347876
0.00388747477
0.00403887907
0.00417922043
0.0043093559
0.00442982505
0.00454094904
0.00464300512
0.00473627198
0.00482103022
0.00489755585
0.00496611597
0.00502696173
0.00508032284
0.00512641005
0.00516541542
0.00519751274
0.00522286409
0.00524163384
0.00525401175
0.00526025052
0.00526069858
0.0052557958
0.00524603341
0.00523184723
0.00521355255
0.00519138685
0.00516558622
0.00513639564
0.00510405358
0.00506879338
0.00503079104
0.00499014891
0.00494694594
0.004901321
0.00485349402
0.00480370152
0.00475213005
0.00469884982
0.00464379599
0.0045867828
0.00452752649
0.00446560256
0.00440040509
0.00433111234
0.00425666854
0.00417575501
0.00408674536
0.00398735364
0.00387171673
0.0037372803
0.0035830181
0.00340560128
0.0032013445
0.00296380201
0.00281043376
0.00286191262
0.00298957094
0.00312194574
0.00323093577
0.00331606917
0.00339252599
0.0034692497
0.00353240818
0.00356510771
0.00355419288
0.00349202229
0.00337379913
0.00321800341
0.0030470338
0.00287774863
0.00272581671
0.00261529636
0.0025714782
0.00259146781
0.00268115592
0.00284748139
0.00304790095
0.0031260265
0.0027640704
0.00201100894
0.0013284537
0.00102204031
0.00130782657
0.0011728684
0.000836929025
0.000499947943
0.000310630142
0.000243144185
0.000263191727
0.000290102348
0.000282606905
0.000264963433
0.000244902644
0.0002267352
0.000219528985
0.00022836361
0.000257028664
0.000307642686
0.00038122162
0.000476375177
0.000592072153
0.00072423788
0.000864999944
0.00100611859
0.00114281119
0.00126889029
0.00137965391
0.00148170479
0.00159877226
0.00177771866
0.00208811868
0.00246253016
0.00281075909
0.0031297117
0.00342504492
0.00370025963
0.00395813676
0.00420029005
0.0044278135
0.00463717485
0.00482956382
0.00500761467
0.00517281322
0.00532603879
0.00546787253
0.00559870398
0.00571887977
0.00582874472
0.00592864168
0.00601890464
0.00609985482
0.00617179268
0.00623499177
0.00628970277
0.00633615396
0.00637455174
0.00640508798
0.0064279558
0.00644337456
0.00645163347
0.00645313007
0.00644836618
0.0064379069
0.00642225755
0.00640182539
0.0063768977
0.00634769375
0.00631448152
0.00627752975
0.00623710645
0.00619342261
0.00614660953
0.00609676695
0.00604405314
0.00598871195
0.00593100704
0.0058711494
0.00580922344
0.0057451616
0.00567875628
0.00560968232
0.00553744955
0.00546135498
0.00538044356
0.00529348533
0.00519894368
0.00509491517
0.00497876771
0.00484474779
0.00468809843
0.0045082972
0.00430114665
0.00406210806
0.00378487471
0.00359774705
0.00363843361
0.00377886524
0.0039360964
0.00407402517
0.00418850655
0.00429381409
0.00439755791
0.00448292589
0.00453046103
0.00452580025
0.00446057432
0.00432945337
0.00415277324
0.00395619936
0.00375999253
0.00358349245
0.00345623769
0.0034092464
0.00344051696
0.00355620452
0.00376217869
0.0040072703
0.00410789287
0.00369587039
0.00278357883
0.00190019844
0.001466804
0.00178013955
0.00157860034
0.001126602
0.000665425999
0.000412076547
0.000326997631
0.000367639336
0.000435465423
0.00043992066
0.000419964085
0.000391764345
0.000363485924
0.000349095302
0.000357329274
0.000394065257
0.000461468403
0.000559160503
0.000683230166
0.00083048337
0.000994424965
0.00116500058
0.00133308029
0.00149433832
0.00164354201
0.0017779581
0.00190748364
0.00205991551
0.00228648976
0.00265693746
0.00309168457
0.00349440654
0.00386301398
0.00420403037
0.00452159011
0.00481888383
0.00509775155
0.00535909506
0.00559895311
0.00582022719
0.00602539856
0.00621592299
0.00639270659
0.00655637757
0.00670739532
0.00684617665
0.00697313272
0.00708866837
0.00719317481
0.00728702656
0.00737057251
0.00744412891
0.00750798552
0.00756240627
0.00760762971
0.0076438772
0.00767137024
0.00769035651
0.0077011597
0.00770422358
0.00770010803
0.00768944871
0.00767283217
0.00765076448
0.00762353651
0.00759137843
0.00755457711
0.00751342763
0.00746823042
0.00741923252
0.00736659757
0.00731044888
0.00725096386
0.00718840719
0.00712306603
0.00705517383
0.00698483009
0.00691196771
0.00683636135
0.00675764831
0.0066752767
0.006588451
0.00649608826
0.00639679099
0.00628881241
0.006169982
0.00603734292
0.00588518531
0.00570710634
0.00550254517
0.00526659049
0.00499393439
0.00467862177
0.00445728007
0.00448278882
0.00463164629
0.00481170689
0.00497917621
0.00512547987
0.00526278386
0.00539644134
0.00550659797
0.00557149438
0.00557581089
0.00551056375
0.00536991596
0.00517560041
0.004956141
0.0047352012
0.0045358759
0.00439320117
0.00434390874
0.00438741958
0.0045301524
0.00477670885
0.00506867589
0.0051972356
0.00474378609
0.00367950052
0.00259264788
0.00201839056
0.00234926647
0.00206973214
0.00148438052
0.000867732707
0.000531134543
0.000419666787
0.000472399574
0.000600132849
0.000634125402
0.000617998068
0.000583759436
0.000544795753
0.000521136562
0.000526671328
0.000570323387
0.000654299595
0.000776201949
0.000928991754
0.00110696448
0.00130125896
0.00150007972
0.00169396573
0.00187945546
0.00205267259
0.00221303836
0.0023733939
0.00256470631
0.00284119649
0.00327068059
0.00376334468
0.00421904519
0.00463646212
0.00502268351
0.00538232831
0.00571890396
0.00603443245
0.00632918795
0.00659989132
0.00685034995
0.00708293526
0.00729908706
0.00749974467
0.00768558911
0.00785715128
0.00801491864
0.00815936868
0.00829096749
0.00841016219
0.00851737935
0.00861301488
0.00869742605
0.00877094042
0.00883385654
0.00888644425
0.00892895364
0.00896163391
0.0089847593
0.00899868541
0.00900389898
0.0090010131
0.00899073033
0.00897374664
0.00895060903
0.00892163616
0.00888707093
0.00884721468
0.00880238439
0.00875291023
0.00869907595
0.00864108063
0.00857907376
0.00851325156
0.00844389615
0.00837131422
0.00829575938
0.008217347
0.00813601381
0.00805152114
0.00796347334
0.00787126176
0.00777400425
0.00767049722
0.00755918457
0.00743812001
0.00730487945
0.00715620368
0.00698635714
0.0067877817
0.00655948627
0.00629594815
0.00599119482
0.0056397775
0.0053844648
0.00539140946
0.00554454688
0.00574487838
0.00594162614
0.0061212974
0.00629286859
0.00645862138
0.00659567217
0.00668024671
0.00669625599
0.00663415158
0.00648754801
0.00627910983
0.00603973846
0.00579645805
0.00557610045
0.00541912192
0.00536792284
0.00542396044
0.00559413469
0.00588197489
0.00622397144
0.00638817484
0.00590023172
0.00469324595
0.00340436382
0.00267888972
0.00301719322
0.0026498495
0.00191817469
0.00111458165
0.000667903136
0.000522580478
0.000573606204
0.000768218673
0.000854415042
0.000853050139
0.000817828604
0.000769874747
0.000736169894
0.000737142047
0.000785911447
0.000885071704
0.00102992705
0.00121002193
0.00141698579
0.00163976446
0.00186524962
0.00208406839
0.00229386418
0.00249231462
0.00268096474
0.00287513984
0.00310813301
0.00343595136
0.00392298372
0.00447108102
0.00497814639
0.0054433715
0.00587413803
0.00627541131
0.00665093731
0.00700295914
0.00733058078
0.00763223273
0.00791196453
0.00817206246
0.00841396426
0.00863864976
0.00884685837
0.00903919394
0.00921621475
0.00937846414
0.00952646815
0.00966072794
0.00978172032
0.00988988639
0.00998562213
0.0100692911
0.010141225
0.0102017236
0.0102510646
0.0102895238
0.0103173996
0.0103350767
0.0103430811
0.0103420735
0.0103328322
0.0103161416
0.0102925845
0.0102625123
0.0102261814
0.010183903
0.0101360111
0.0100828626
0.0100247783
0.00996199537
0.00989469188
0.00982308231
0.00974746263
0.00966815482
0.00958543021
0.00949942066
0.00941007016
0.00931713152
0.00922018119
0.0091185596
0.00901130503
0.00889710221
0.00877424742
0.00864060798
0.00849352293
0.0083294543
0.00814259357
0.00792459633
0.00767381773
0.00738418528
0.00704917238
0.00666393952
0.00637551298
0.00636144174
0.00651508981
0.00673284492
0.00695790776
0.00717162274
0.00737886948
0.00757820676
0.00774381549
0.00785019634
0.00788060062
0.00782489818
0.0076760469
0.00745718333
0.00720104021
0.00693794156
0.00669831756
0.00652788999
0.0064747013
0.00654298478
0.00674058096
0.00707056168
0.00746726034
0.0076776005
0.00716203854
0.00582090465
0.00433337922
0.00344884791
0.00378497383
0.00332114835
0.00243425552
0.00141448386
0.000828280347
0.000594498223
0.000673702444
0.000924598436
0.00108673073
0.00111561288
0.00108754673
0.00103480671
0.000992076884
0.000987413757
0.00103934563
0.00115157283
0.00131724476
0.00152250892
0.00175631847
0.00200564112
0.00225641589
0.00249963721
0.00273415659
0.00295924773
0.00317841445
0.00340897476
0.0036857901
0.00406563471
0.00460839658
0.00520940121
0.00576609469
0.00627794069
0.00675238198
0.00719460492
0.0076085236
0.00799678189
0.00835648917
0.00868894827
0.00899782274
0.00928533081
0.00955292147
0.00980162256
0.0100322369
0.0102454424
0.0104418679
0.0106221215
0.0107867873
0.010936418
0.0110715384
0.0111926323
0.0113001316
0.0113944334
0.0114759007
0.0115448614
0.0116016189
0.0116464744
0.0116797479
0.0117018493
0.0117133401
0.0117149235
0.0117074558
0.0116917894
0.0116685444
0.0116381053
0.0116007414
0.0115567691
0.0115065344
0.0114504177
0.0113887763
0.0113218881
0.0112499618
0.0111732294
0.0110919967
0.0110065969
0.0109173161
0.0108243036
0.0107275139
0.0106266964
0.010521405
0.0104109359
0.0102942559
0.0101699483
0.0100361749
0.00989063176
0.00973044053
0.00955180953
0.00934882948
0.00911264241
0.00884084443
0.00852685833
0.00816371247
0.00774723487
0.00742709272
0.0073904083
0.00754127534
0.00777350714
0.00802537375
0.00827301894
0.00851653125
0.00875029702
0.00894573524
0.00907589088
0.00912337684
0.00907740039
0.00893009159
0.00870461531
0.00843492236
0.00815458855
0.00789735597
0.00771400508
0.00765827431
0.00773809834
0.00796297613
0.00833655579
0.00879475561
0.00906513314
0.00852934974
0.00706020215
0.00537789025
0.00432823072
0.00465330163
0.00408510132
0.0030373716
0.0017762862
0.00103488397
0.000678356849
0.000735482508
0.00105862351
0.00131545696
0.00139411884
0.00138441013
0.00133359802
0.00128490737
0.00127474892
0.00132819425
0.00145108128
0.00163496364
0.00186289915
0.00212127597
0.0023953076
0.00267026115
0.00293765819
0.0031975544
0.00345074987
0.00370246576
0.00397153101
0.00429370985
0.00472568256
0.00532209911
0.00597342742
0.00657785865
0.00713492569
0.0076519388
0.00813419217
0.00858567982
0.00900903746
0.00940057176
0.00976346191
0.010101128
0.010415742
0.0107087767
0.0109813153
0.0112342282
0.0114682683
0.0116841338
0.0118824959
0.0120639946
0.0122292306
0.0123787738
0.0125131481
0.0126328175
0.0127382101
0.0128297175
0.0129076935
0.0129724651
0.0130243571
0.0130637076
0.0130909479
0.0131066691
0.0131116089
0.0131067127
0.0130928734
0.0130707501
0.0130407597
0.0130031831
0.0129583373
0.0129065748
0.012848296
0.0127838946
0.0127136908
0.0126379258
0.0125568477
0.0124707686
0.012380028
0.0122849245
0.0121856252
0.012082099
0.0119740966
0.0118611555
0.0117425343
0.0116171376
0.0114834591
0.0113395404
0.0111829239
0.0110105355
0.0108183563
0.0106003648
0.0103473884
0.0100562387
0.00971987679
0.0093309898
0.00888609416
0.00853611247
0.00847599147
0.0086213167
0.00886512213
0.00914187088
0.00942263474
0.00970225481
0.00997071975
0.0101969307
0.0103527051
0.0104199422
0.0103870509
0.0102451044
0.0100168787
0.00973684883
0.00944185215
0.00916846507
0.00897231172
0.00891306023