/*--------------------------------*- C++ -*----------------------------------*\
| =========                 |                                                 |
| \\      /  F ield         | OpenFOAM: The Open Source CFD Toolbox           |
|  \\    /   O peration     | Version:  2506                                  |
|   \\  /    A nd           | Website:  www.openfoam.com                      |
|    \\/     M anipulation  |                                                 |
\*---------------------------------------------------------------------------*/
FoamFile
{
    version     2.0;
    format      ascii;
    arch        "LSB;label=32;scalar=64";
    class       volTensorField;
    location    "2644";
    object      Omegaij;
}
// * * * * * * * * * * * * * * * * * * * * * * * * * * * * * * * * * * * * * //

dimensions      [0 0 -1 0 0 0 0];

internalField   nonuniform List<tensor> 
15600
(
(-0 6.39718277 7.19691222e-20 -6.39718277 -0 7.15252185e-22 -7.19691222e-20 -7.15252185e-22 -0)
(-0 6.99302487 2.99226058e-18 -6.99302487 -0 1.4183856e-18 -2.99226058e-18 -1.4183856e-18 -0)
(-0 4.86377495 1.54944364e-18 -4.86377495 -0 3.12431839e-20 -1.54944364e-18 -3.12431839e-20 -0)
(-0 0.214875861 -9.42774072e-15 -0.214875861 -0 -3.34280366e-14 9.42774072e-15 3.34280366e-14 -0)
(-0 -2.76214774 -1.94703043e-14 2.76214774 -0 -4.10437109e-14 1.94703043e-14 4.10437109e-14 -0)
(-0 -3.0543141 1.09760992e-16 3.0543141 -0 1.25387586e-16 -1.09760992e-16 -1.25387586e-16 -0)
(-0 -2.42389799 6.1726002e-17 2.42389799 -0 9.28195707e-17 -6.1726002e-17 -9.28195707e-17 -0)
(-0 -2.16744053 2.18240606e-15 2.16744053 -0 6.54865036e-18 -2.18240606e-15 -6.54865036e-18 -0)
(-0 -1.9017973 -1.17028938e-14 1.9017973 -0 -1.11731591e-14 1.17028938e-14 1.11731591e-14 -0)
(-0 -1.64788395 -1.58284842e-14 1.64788395 -0 -1.1405029e-14 1.58284842e-14 1.1405029e-14 -0)
(-0 -1.4102611 -2.22334998e-15 1.4102611 -0 7.6939234e-17 2.22334998e-15 -7.6939234e-17 -0)
(-0 -1.26661141 -2.55724587e-20 1.26661141 -0 -2.47252242e-20 2.55724587e-20 2.47252242e-20 -0)
(-0 -1.18772335 1.02877938e-17 1.18772335 -0 -5.70666775e-19 -1.02877938e-17 5.70666775e-19 -0)
(-0 -1.17066073 2.27380683e-16 1.17066073 -0 2.74405482e-16 -2.27380683e-16 -2.74405482e-16 -0)
(-0 -1.20764429 -1.87330756e-16 1.20764429 -0 -2.15627377e-16 1.87330756e-16 2.15627377e-16 -0)
(-0 -1.28512636 1.44810557e-18 1.28512636 -0 1.33701595e-19 -1.44810557e-18 -1.33701595e-19 -0)
(-0 -1.36868707 -7.36308595e-17 1.36868707 -0 -4.81756166e-17 7.36308595e-17 4.81756166e-17 -0)
(-0 -1.42961414 -3.8266697e-17 1.42961414 -0 -6.77498481e-17 3.8266697e-17 6.77498481e-17 -0)
(-0 -1.46230748 1.24762428e-16 1.46230748 -0 1.18285494e-16 -1.24762428e-16 -1.18285494e-16 -0)
(-0 -1.45736509 6.05433445e-17 1.45736509 -0 1.2948243e-16 -6.05433445e-17 -1.2948243e-16 -0)
(-0 -1.41183597 4.63086115e-17 1.41183597 -0 5.50562935e-17 -4.63086115e-17 -5.50562935e-17 -0)
(-0 -1.34216216 -2.85039298e-17 1.34216216 -0 -5.98280481e-17 2.85039298e-17 5.98280481e-17 -0)
(-0 -1.27201113 -1.12879233e-16 1.27201113 -0 -2.08888749e-16 1.12879233e-16 2.08888749e-16 -0)
(-0 -1.2037265 -7.61195934e-18 1.2037265 -0 1.13208671e-18 7.61195934e-18 -1.13208671e-18 -0)
(-0 -1.14189176 -5.84928264e-17 1.14189176 -0 -1.91037475e-16 5.84928264e-17 1.91037475e-16 -0)
(-0 -1.10092469 1.18831385e-15 1.10092469 -0 1.61887958e-17 -1.18831385e-15 -1.61887958e-17 -0)
(-0 -1.07126534 -3.9466345e-17 1.07126534 -0 -5.54613745e-15 3.9466345e-17 5.54613745e-15 -0)
(-0 -1.22260167 -1.94431688e-15 1.22260167 -0 -4.9330663e-15 1.94431688e-15 4.9330663e-15 -0)
(-0 -1.62234208 -1.17725721e-15 1.62234208 -0 9.56138686e-17 1.17725721e-15 -9.56138686e-17 -0)
(-0 -2.00685456 3.78542211e-24 2.00685456 -0 -2.97834157e-25 -3.78542211e-24 2.97834157e-25 -0)
(-0 -2.30860253 1.38678172e-15 2.30860253 -0 -1.02071696e-16 -1.38678172e-15 1.02071696e-16 -0)
(-0 -2.56913729 -2.89678135e-17 2.56913729 -0 -6.21442126e-15 2.89678135e-17 6.21442126e-15 -0)
(-0 -2.78707432 -2.98807057e-15 2.78707432 -0 -5.56711752e-15 2.98807057e-15 5.56711752e-15 -0)
(-0 -2.97159134 -1.43654293e-15 2.97159134 -0 9.74596047e-17 1.43654293e-15 -9.74596047e-17 -0)
(-0 -3.12602896 6.77482659e-34 3.12602896 -0 4.96275166e-19 -6.77482659e-34 -4.96275166e-19 -0)
(-0 -3.25382509 -0 3.25382509 -0 5.25543014e-19 -0 -5.25543014e-19 -0)
(-0 -3.35688916 1.93694377e-20 3.35688916 -0 -5.25540431e-19 -1.93694377e-20 5.25540431e-19 -0)
(-0 -3.43693147 -1.63140796e-15 3.43693147 -0 9.12940829e-17 1.63140796e-15 -9.12940829e-17 -0)
(-0 -3.49539736 2.13911547e-16 3.49539736 -0 6.86360686e-15 -2.13911547e-16 -6.86360686e-15 -0)
(-0 -3.53365533 3.58293541e-15 3.53365533 -0 6.46131842e-15 -3.58293541e-15 -6.46131842e-15 -0)
(-0 -3.55291806 1.70566921e-15 3.55291806 -0 -8.63658414e-17 -1.70566921e-15 8.63658414e-17 -0)
(-0 -3.55438625 -5.56913764e-20 3.55438625 -0 -8.65764591e-20 5.56913764e-20 8.65764591e-20 -0)
(-0 -3.53924565 1.43170799e-20 3.53924565 -0 -2.42601743e-19 -1.43170799e-20 2.42601743e-19 -0)
(-0 -3.5086542 -1.41724179e-20 3.5086542 -0 5.78989099e-19 1.41724179e-20 -5.78989099e-19 -0)
(-0 -3.46376155 -1.11656397e-20 3.46376155 -0 1.07540407e-19 1.11656397e-20 -1.07540407e-19 -0)
(-0 -3.40570574 2.22693646e-15 3.40570574 -0 -7.98500523e-17 -2.22693646e-15 7.98500523e-17 -0)
(-0 -3.33560177 4.07371154e-16 3.33560177 -0 -9.24682978e-15 -4.07371154e-16 9.24682978e-15 -0)
(-0 -3.25453368 -4.09300152e-15 3.25453368 -0 -9.05526907e-15 4.09300152e-15 9.05526907e-15 -0)
(-0 -3.16354909 -2.31323602e-15 3.16354909 -0 7.03471791e-17 2.31323602e-15 -7.03471791e-17 -0)
(-0 -3.06365553 -6.99533534e-21 3.06365553 -0 -1.44939331e-19 6.99533534e-21 1.44939331e-19 -0)
(-0 -2.95582333 -2.1350482e-20 2.95582333 -0 3.68798912e-19 2.1350482e-20 -3.68798912e-19 -0)
(-0 -2.84099342 2.55908244e-15 2.84099342 -0 -5.24875672e-17 -2.55908244e-15 5.24875672e-17 -0)
(-0 -2.7200855 1.13922965e-15 2.7200855 -0 -1.08481013e-14 -1.13922965e-15 1.08481013e-14 -0)
(-0 -2.59400811 -3.98897205e-15 2.59400811 -0 -1.08930372e-14 3.98897205e-15 1.08930372e-14 -0)
(-0 -2.46367059 -2.63568564e-15 2.46367059 -0 4.03403382e-17 2.63568564e-15 -4.03403382e-17 -0)
(-0 -2.32999207 -8.00083374e-21 2.32999207 -0 2.88306864e-21 8.00083374e-21 -2.88306864e-21 -0)
(-0 -2.19390094 4.38500084e-21 2.19390094 -0 2.6995174e-21 -4.38500084e-21 -2.6995174e-21 -0)
(-0 -2.05631901 -7.566708e-21 2.05631901 -0 -8.10822259e-20 7.566708e-21 8.10822259e-20 -0)
(-0 -1.91812077 -7.65542115e-22 1.91812077 -0 -3.59008922e-20 7.65542115e-22 3.59008922e-20 -0)
(-0 -1.78007542 6.18768383e-21 1.78007542 -0 -9.92657517e-21 -6.18768383e-21 9.92657517e-21 -0)
(-0 -1.64281483 -6.98185519e-21 1.64281483 -0 3.46327518e-20 6.98185519e-21 -3.46327518e-20 -0)
(-0 -1.50683057 5.44410126e-21 1.50683057 -0 -8.41491966e-20 -5.44410126e-21 8.41491966e-20 -0)
(-0 -1.37256417 4.04251858e-21 1.37256417 -0 -9.49326301e-20 -4.04251858e-21 9.49326301e-20 -0)
(-0 -1.24046879 -4.7451992e-21 1.24046879 -0 1.44867658e-19 4.7451992e-21 -1.44867658e-19 -0)
(-0 -1.11102437 1.01268868e-20 1.11102437 -0 1.28512444e-22 -1.01268868e-20 -1.28512444e-22 -0)
(-0 -0.984639942 -1.10769135e-20 0.984639942 -0 1.05370373e-19 1.10769135e-20 -1.05370373e-19 -0)
(-0 -0.861602869 -9.18434909e-21 0.861602869 -0 -1.05756957e-19 9.18434909e-21 1.05756957e-19 -0)
(-0 -0.742120946 1.01343758e-20 0.742120946 -0 1.80050474e-22 -1.01343758e-20 -1.80050474e-22 -0)
(-0 -0.626345294 -0 0.626345294 -0 -0 -0 -0 -0)
(-0 -0.514461278 -0 0.514461278 -0 -0 -0 -0 -0)
(-0 -0.406723681 -0 0.406723681 -0 -0 -0 -0 -0)
(-0 -0.303402826 -3.68888931e-15 0.303402826 -0 -1.13022298e-16 3.68888931e-15 1.13022298e-16 -0)
(-0 -0.204687177 -7.32555174e-15 0.204687177 -0 1.75293971e-14 7.32555174e-15 -1.75293971e-14 -0)
(-0 -0.110655325 6.43423041e-17 0.110655325 -0 3.67908658e-14 -6.43423041e-17 -3.67908658e-14 -0)
(-0 -0.0212984079 7.45032936e-15 0.0212984079 -0 1.92242744e-14 -7.45032936e-15 -1.92242744e-14 -0)
(-0 0.0634053929 3.74647128e-15 -0.0634053929 -0 1.44980321e-16 -3.74647128e-15 -1.44980321e-16 -0)
(-0 0.143417987 -4.43691311e-20 -0.143417987 -0 -4.72764383e-19 4.43691311e-20 4.72764383e-19 -0)
(-0 0.218581941 -4.58718026e-22 -0.218581941 -0 -2.20682858e-19 4.58718026e-22 2.20682858e-19 -0)
(-0 0.288633073 -3.95823226e-15 -0.288633073 -0 -1.92082469e-16 3.95823226e-15 1.92082469e-16 -0)
(-0 0.353158029 -4.14603519e-15 -0.353158029 -0 1.83037511e-14 4.14603519e-15 -1.83037511e-14 -0)
(-0 0.411564546 3.73199759e-15 -0.411564546 -0 1.98339895e-14 -3.73199759e-15 -1.98339895e-14 -0)
(-0 0.462968157 3.95128479e-15 -0.462968157 -0 2.10369222e-16 -3.95128479e-15 -2.10369222e-16 -0)
(-0 0.506237331 4.8433996e-20 -0.506237331 -0 -5.03684819e-19 -4.8433996e-20 5.03684819e-19 -0)
(-0 0.539731043 2.38021989e-21 -0.539731043 -0 -4.7358772e-19 -2.38021989e-21 4.7358772e-19 -0)
(-0 0.561585021 4.60496214e-22 -0.561585021 -0 9.80365007e-19 -4.60496214e-22 -9.80365007e-19 -0)
(-0 0.569162668 -1.47825838e-19 -0.569162668 -0 2.54083228e-18 1.47825838e-19 -2.54083228e-18 -0)
(-0 0.560434432 -4.988006e-21 -0.560434432 -0 -3.59547965e-18 4.988006e-21 3.59547965e-18 -0)
(-0 0.531006584 3.04416985e-19 -0.531006584 -0 1.06579899e-18 -3.04416985e-19 -1.06579899e-18 -0)
(-0 0.47972709 -3.02755314e-19 -0.47972709 -0 1.03898501e-18 3.02755314e-19 -1.03898501e-18 -0)
(-0 0.398312308 -2.59279803e-21 -0.398312308 -0 -3.69750002e-18 2.59279803e-21 3.69750002e-18 -0)
(-0 0.292503372 2.059787e-19 -0.292503372 -0 4.23925883e-18 -2.059787e-19 -4.23925883e-18 -0)
(-0 0.144857981 -1.0272921e-19 -0.144857981 -0 -1.59570596e-18 1.0272921e-19 1.59570596e-18 -0)
(-0 -0.0725552039 -1.05765362e-19 0.0725552039 -0 -8.86710903e-21 1.05765362e-19 8.86710903e-21 -0)
(-0 -0.162674393 2.69705238e-17 0.162674393 -0 1.21622608e-18 -2.69705238e-17 -1.21622608e-18 -0)
(-0 -0.136661017 -6.14107213e-17 0.136661017 -0 2.80173746e-16 6.14107213e-17 -2.80173746e-16 -0)
(-0 -0.0810779965 1.49454071e-16 0.0810779965 -0 -4.0460183e-16 -1.49454071e-16 4.0460183e-16 -0)
(-0 0.0338770798 -4.70463257e-16 -0.0338770798 -0 1.34180528e-15 4.70463257e-16 -1.34180528e-15 -0)
(-0 0.193466391 -3.59509397e-16 -0.193466391 -0 5.21882165e-16 3.59509397e-16 -5.21882165e-16 -0)
(-0 0.413221943 2.84228052e-16 -0.413221943 -0 -5.18576382e-16 -2.84228052e-16 5.18576382e-16 -0)
(-0 0.740061589 -3.11423725e-16 -0.740061589 -0 5.03819584e-16 3.11423725e-16 -5.03819584e-16 -0)
(-0 1.21064029 -2.61576855e-16 -1.21064029 -0 2.1632791e-16 2.61576855e-16 -2.1632791e-16 -0)
(-0 1.85336286 3.93548259e-16 -1.85336286 -0 -4.89049549e-16 -3.93548259e-16 4.89049549e-16 -0)
(-0 2.6715486 -4.69345174e-16 -2.6715486 -0 7.0124322e-16 4.69345174e-16 -7.0124322e-16 -0)
(-0 3.63471256 4.47381737e-17 -3.63471256 -0 3.3387868e-18 -4.47381737e-17 -3.3387868e-18 -0)
(-0 4.62286579 -3.2176552e-16 -4.62286579 -0 4.73997936e-16 3.2176552e-16 -4.73997936e-16 -0)
(-0 5.57284395 1.81475653e-16 -5.57284395 -0 -1.82928657e-16 -1.81475653e-16 1.82928657e-16 -0)
(-0 6.54539862 1.84654583e-16 -6.54539862 -0 -1.74216956e-16 -1.84654583e-16 1.74216956e-16 -0)
(-0 7.61529851 1.87920156e-16 -7.61529851 -0 -1.63781831e-16 -1.87920156e-16 1.63781831e-16 -0)
(-0 8.88324441 -3.73753347e-16 -8.88324441 -0 4.57215197e-16 3.73753347e-16 -4.57215197e-16 -0)
(-0 10.5225337 -2.68892349e-16 -10.5225337 -0 1.29510887e-16 2.68892349e-16 -1.29510887e-16 -0)
(-0 12.8914683 -6.05417386e-16 -12.8914683 -0 6.49368884e-16 6.05417386e-16 -6.49368884e-16 -0)
(-0 16.0480597 -2.80618049e-16 -16.0480597 -0 3.42242882e-16 2.80618049e-16 -3.42242882e-16 -0)
(-0 19.7937354 1.97139827e-16 -19.7937354 -0 -2.96184718e-16 -1.97139827e-16 2.96184718e-16 -0)
(-0 24.2453483 -3.57114303e-17 -24.2453483 -0 9.01855213e-17 3.57114303e-17 -9.01855213e-17 -0)
(-0 28.9076012 -1.94168934e-16 -28.9076012 -0 3.32591352e-16 1.94168934e-16 -3.32591352e-16 -0)
(-0 32.1016941 5.57424666e-18 -32.1016941 -0 -2.39006315e-17 -5.57424666e-18 2.39006315e-17 -0)
(-0 29.15988 -8.88513131e-17 -29.15988 -0 -4.71226301e-17 8.88513131e-17 4.71226301e-17 -0)
(-0 20.9404306 -2.97668703e-18 -20.9404306 -0 4.13626291e-20 2.97668703e-18 -4.13626291e-20 -0)
(-0 11.8438911 1.53065082e-19 -11.8438911 -0 -6.25500352e-18 -1.53065082e-19 6.25500352e-18 -0)
(-0 6.85155038 3.00443426e-19 -6.85155038 -0 -1.52498922e-21 -3.00443426e-19 1.52498922e-21 -0)
(-0 7.6566239 1.35686344e-22 -7.6566239 -0 -3.49112433e-22 -1.35686344e-22 3.49112433e-22 -0)
(-0 7.67667099 3.1558564e-18 -7.67667099 -0 -3.60583337e-18 -3.1558564e-18 3.60583337e-18 -0)
(-0 5.79264879 -1.74572119e-15 -5.79264879 -0 -2.50053788e-17 1.74572119e-15 2.50053788e-17 -0)
(-0 1.54680502 2.09508046e-15 -1.54680502 -0 3.17878406e-14 -2.09508046e-15 -3.17878406e-14 -0)
(-0 -1.88138006 2.94197428e-14 1.88138006 -0 3.46380167e-14 -2.94197428e-14 -3.46380167e-14 -0)
(-0 -2.63702869 2.31959526e-15 2.63702869 -0 -8.87765772e-17 -2.31959526e-15 8.87765772e-17 -0)
(-0 -2.20432297 -6.41873482e-17 2.20432297 -0 -8.96030036e-17 6.41873482e-17 8.96030036e-17 -0)
(-0 -1.98137675 -3.24355989e-15 1.98137675 -0 1.52258616e-16 3.24355989e-15 -1.52258616e-16 -0)
(-0 -1.75291142 -2.41624239e-14 1.75291142 -0 -2.97038356e-14 2.41624239e-14 2.97038356e-14 -0)
(-0 -1.53226698 -1.89718061e-14 1.53226698 -0 -3.06180452e-14 1.89718061e-14 3.06180452e-14 -0)
(-0 -1.32765869 3.41077726e-15 1.32765869 -0 -1.17924545e-16 -3.41077726e-15 1.17924545e-16 -0)
(-0 -1.20319869 2.46845549e-20 1.20319869 -0 1.9853279e-20 -2.46845549e-20 -1.9853279e-20 -0)
(-0 -1.1378443 1.58445645e-17 1.1378443 -0 -8.56709727e-19 -1.58445645e-17 8.56709727e-19 -0)
(-0 -1.12781331 -2.5177259e-16 1.12781331 -0 -2.52939983e-16 2.5177259e-16 2.52939983e-16 -0)
(-0 -1.16494857 -9.06089055e-17 1.16494857 -0 -1.34151944e-16 9.06089055e-17 1.34151944e-16 -0)
(-0 -1.23448223 1.40992903e-17 1.23448223 -0 -8.17138631e-19 -1.40992903e-17 8.17138631e-19 -0)
(-0 -1.30655402 -6.45945606e-17 1.30655402 -0 -1.24959824e-16 6.45945606e-17 1.24959824e-16 -0)
(-0 -1.3569385 1.85580738e-16 1.3569385 -0 2.39271477e-16 -1.85580738e-16 -2.39271477e-16 -0)
(-0 -1.38050314 -1.02339464e-16 1.38050314 -0 -1.16042008e-16 1.02339464e-16 1.16042008e-16 -0)
(-0 -1.37106035 -6.17461871e-17 1.37106035 -0 -1.24227249e-16 6.17461871e-17 1.24227249e-16 -0)
(-0 -1.32963419 5.42634321e-17 1.32963419 -0 1.41016349e-16 -5.42634321e-17 -1.41016349e-16 -0)
(-0 -1.27116664 -4.49151146e-18 1.27116664 -0 5.70158603e-17 4.49151146e-18 -5.70158603e-17 -0)
(-0 -1.2142737 1.28084728e-16 1.2142737 -0 1.88633474e-16 -1.28084728e-16 -1.88633474e-16 -0)
(-0 -1.1626978 9.76807141e-18 1.1626978 -0 -1.32517755e-18 -9.76807141e-18 1.32517755e-18 -0)
(-0 -1.12162671 4.07550531e-17 1.12162671 -0 6.84798043e-17 -4.07550531e-17 -6.84798043e-17 -0)
(-0 -1.10189081 -1.79686581e-15 1.10189081 -0 -7.01564653e-17 1.79686581e-15 7.01564653e-17 -0)
(-0 -1.12307739 -2.79248432e-15 1.12307739 -0 -1.21366673e-14 2.79248432e-15 1.21366673e-14 -0)
(-0 -1.2952974 1.87186723e-15 1.2952974 -0 -1.2603864e-14 -1.87186723e-15 1.2603864e-14 -0)
(-0 -1.62317724 1.72522561e-15 1.62317724 -0 -1.40118442e-16 -1.72522561e-15 1.40118442e-16 -0)
(-0 -1.92312561 -1.1185241e-23 1.92312561 -0 8.80048998e-25 1.1185241e-23 -8.80048998e-25 -0)
(-0 -2.155901 -2.04743143e-15 2.155901 -0 1.50697688e-16 2.04743143e-15 -1.50697688e-16 -0)
(-0 -2.34940746 -6.19087861e-16 2.34940746 -0 -1.45292863e-14 6.19087861e-16 1.45292863e-14 -0)
(-0 -2.50666842 3.57105641e-15 2.50666842 -0 -1.53222452e-14 -3.57105641e-15 1.53222452e-14 -0)
(-0 -2.6350522 2.05464347e-15 2.6350522 -0 -1.40826285e-16 -2.05464347e-15 1.40826285e-16 -0)
(-0 -2.73798253 9.21528325e-20 2.73798253 -0 7.96925022e-21 -9.21528325e-20 -7.96925022e-21 -0)
(-0 -2.81844368 -1.64177122e-19 2.81844368 -0 2.50147197e-20 1.64177122e-19 -2.50147197e-20 -0)
(-0 -2.87836209 1.02963381e-20 2.87836209 -0 -1.5476061e-20 -1.02963381e-20 1.5476061e-20 -0)
(-0 -2.919415 2.36629011e-15 2.919415 -0 -1.32321331e-16 -2.36629011e-15 1.32321331e-16 -0)
(-0 -2.94302847 5.48485552e-16 2.94302847 -0 1.71120705e-14 -5.48485552e-16 -1.71120705e-14 -0)
(-0 -2.95049035 -4.22909437e-15 2.95049035 -0 1.81329836e-14 4.22909437e-15 -1.81329836e-14 -0)
(-0 -2.94294155 -2.4208909e-15 2.94294155 -0 1.22392948e-16 2.4208909e-15 -1.22392948e-16 -0)
(-0 -2.92150363 3.2219529e-20 2.92150363 -0 5.0096876e-20 -3.2219529e-20 -5.0096876e-20 -0)
(-0 -2.88731154 6.4566229e-20 2.88731154 -0 2.19996958e-19 -6.4566229e-20 -2.19996958e-19 -0)
(-0 -2.84141657 3.29706513e-21 2.84141657 -0 -2.28772292e-19 -3.29706513e-21 2.28772292e-19 -0)
(-0 -2.78482105 -1.36900024e-19 2.78482105 -0 -6.93529261e-20 1.36900024e-19 6.93529261e-20 -0)
(-0 -2.7184908 -3.22198174e-15 2.7184908 -0 1.14451756e-16 3.22198174e-15 -1.14451756e-16 -0)
(-0 -2.64335148 -1.45619321e-15 2.64335148 -0 -2.34171338e-14 1.45619321e-15 2.34171338e-14 -0)
(-0 -2.56028675 5.01045408e-15 2.56028675 -0 -2.45302089e-14 -5.01045408e-15 2.45302089e-14 -0)
(-0 -2.47013782 3.30733606e-15 2.47013782 -0 -1.01018957e-16 -3.30733606e-15 1.01018957e-16 -0)
(-0 -2.37370488 6.03492484e-20 2.37370488 -0 1.38558413e-19 -6.03492484e-20 -1.38558413e-19 -0)
(-0 -2.27175214 -3.48970671e-20 2.27175214 -0 -1.40433956e-19 3.48970671e-20 1.40433956e-19 -0)
(-0 -2.16501503 -3.72858319e-15 2.16501503 -0 7.60003913e-17 3.72858319e-15 -7.60003913e-17 -0)
(-0 -2.05420752 -2.37259008e-15 2.05420752 -0 -2.69754531e-14 2.37259008e-15 2.69754531e-14 -0)
(-0 -1.94003028 5.10323072e-15 1.94003028 -0 -2.7911901e-14 -5.10323072e-15 2.7911901e-14 -0)
(-0 -1.82317918 3.82163657e-15 1.82317918 -0 -5.81627743e-17 -3.82163657e-15 5.81627743e-17 -0)
(-0 -1.7043501 -1.13574669e-20 1.7043501 -0 2.80737341e-21 1.13574669e-20 -2.80737341e-21 -0)
(-0 -1.58423643 -1.2572142e-20 1.58423643 -0 2.71518167e-21 1.2572142e-20 -2.71518167e-21 -0)
(-0 -1.46351436 7.92864029e-21 1.46351436 -0 -1.65728519e-19 -7.92864029e-21 1.65728519e-19 -0)
(-0 -1.34281245 8.24845388e-21 1.34281245 -0 6.77262853e-20 -8.24845388e-21 -6.77262853e-20 -0)
(-0 -1.22267523 1.21170668e-21 1.22267523 -0 -2.36803416e-20 -1.21170668e-21 2.36803416e-20 -0)
(-0 -1.10354606 -1.04988269e-21 1.10354606 -0 1.20708051e-21 1.04988269e-21 -1.20708051e-21 -0)
(-0 -0.985777827 -1.69192766e-20 0.985777827 -0 4.63610552e-20 1.69192766e-20 -4.63610552e-20 -0)
(-0 -0.869697327 2.08440896e-20 0.869697327 -0 -1.87532888e-19 -2.08440896e-20 1.87532888e-19 -0)
(-0 -0.755643909 1.14077078e-20 0.755643909 -0 3.01148759e-21 -1.14077078e-20 -3.01148759e-21 -0)
(-0 -0.643970093 -1.4420842e-20 0.643970093 -0 1.38545956e-19 1.4420842e-20 -1.38545956e-19 -0)
(-0 -0.534972709 -0 0.534972709 -0 -1.01800021e-19 -0 1.01800021e-19 -0)
(-0 -0.428869294 -9.66995121e-34 0.428869294 -0 3.95157766e-19 9.66995121e-34 -3.95157766e-19 -0)
(-0 -0.325823669 -0 0.325823669 -0 -2.95007847e-19 -0 2.95007847e-19 -0)
(-0 -0.225966587 1.14883029e-33 0.225966587 -0 3.04621027e-19 -1.14883029e-33 -3.04621027e-19 -0)
(-0 -0.129453195 -0 0.129453195 -0 3.79966916e-21 -0 -3.79966916e-21 -0)
(-0 -0.0364887799 -6.6829497e-20 0.0364887799 -0 3.17498207e-19 6.6829497e-20 -3.17498207e-19 -0)
(-0 0.0527203898 5.59420138e-15 -0.0527203898 -0 1.69721486e-16 -5.59420138e-15 -1.69721486e-16 -0)
(-0 0.1380272 1.12676951e-14 -0.1380272 -0 3.9436184e-14 -1.12676951e-14 -3.9436184e-14 -0)
(-0 0.219361347 5.97322588e-17 -0.219361347 -0 7.88207e-14 -5.97322588e-17 -7.88207e-14 -0)
(-0 0.296710427 -1.13874933e-14 -0.296710427 -0 3.92983962e-14 1.13874933e-14 -3.92983962e-14 -0)
(-0 0.370064317 -5.77192749e-15 -0.370064317 -0 -2.20615509e-16 5.77192749e-15 2.20615509e-16 -0)
(-0 0.439364098 -2.08891003e-19 -0.439364098 -0 1.11679909e-18 2.08891003e-19 -1.11679909e-18 -0)
(-0 0.504458856 -7.444049e-20 -0.504458856 -0 1.78045405e-19 7.444049e-20 -1.78045405e-19 -0)
(-0 0.565111135 5.94622637e-15 -0.565111135 -0 2.86513198e-16 -5.94622637e-15 -2.86513198e-16 -0)
(-0 0.620962245 6.23729334e-15 -0.620962245 -0 4.22012938e-14 -6.23729334e-15 -4.22012938e-14 -0)
(-0 0.671504303 -5.7258315e-15 -0.671504303 -0 4.15601303e-14 5.7258315e-15 -4.15601303e-14 -0)
(-0 0.715996128 -6.0514092e-15 -0.715996128 -0 -3.23731006e-16 6.0514092e-15 3.23731006e-16 -0)
(-0 0.753474939 -7.58427664e-20 -0.753474939 -0 -9.20053208e-19 7.58427664e-20 9.20053208e-19 -0)
(-0 0.782579126 1.3687936e-19 -0.782579126 -0 -1.0358381e-18 -1.3687936e-19 1.0358381e-18 -0)
(-0 0.801701058 3.10490663e-19 -0.801701058 -0 1.98204739e-18 -3.10490663e-19 -1.98204739e-18 -0)
(-0 0.80860213 -2.8729748e-19 -0.80860213 -0 -9.66236688e-19 2.8729748e-19 9.66236688e-19 -0)
(-0 0.801063743 -1.62410211e-19 -0.801063743 -0 3.40137007e-18 1.62410211e-19 -3.40137007e-18 -0)
(-0 0.775566519 1.50689547e-19 -0.775566519 -0 -2.45736784e-18 -1.50689547e-19 2.45736784e-18 -0)
(-0 0.730224268 -1.55888049e-19 -0.730224268 -0 -2.52200623e-18 1.55888049e-19 2.52200623e-18 -0)
(-0 0.658470867 3.06240467e-19 -0.658470867 -0 3.51792705e-18 -3.06240467e-19 -3.51792705e-18 -0)
(-0 0.561748978 1.05902563e-20 -0.561748978 -0 -9.2172956e-19 -1.05902563e-20 9.2172956e-19 -0)
(-0 0.425068924 -3.1909229e-19 -0.425068924 -0 -8.1006633e-20 3.1909229e-19 8.1006633e-20 -0)
(-0 0.243665077 1.98121633e-18 -0.243665077 -0 -5.020198e-17 -1.98121633e-18 5.020198e-17 -0)
(-0 0.171865873 5.16607517e-17 -0.171865873 -0 -4.04272426e-16 -5.16607517e-17 4.04272426e-16 -0)
(-0 0.19794096 1.80225713e-17 -0.19794096 -0 -2.75536913e-16 -1.80225713e-17 2.75536913e-16 -0)
(-0 0.259292304 -3.43371798e-17 -0.259292304 -0 3.89184471e-16 3.43371798e-17 -3.89184471e-16 -0)
(-0 0.367667735 2.34016527e-16 -0.367667735 -0 -4.86367743e-16 -2.34016527e-16 4.86367743e-16 -0)
(-0 0.517022052 1.57033377e-16 -0.517022052 -0 -5.19290175e-16 -1.57033377e-16 5.19290175e-16 -0)
(-0 0.721092646 -2.74390133e-16 -0.721092646 -0 4.98637804e-16 2.74390133e-16 -4.98637804e-16 -0)
(-0 1.01535711 3.79235896e-16 -1.01535711 -0 -4.81873403e-16 -3.79235896e-16 4.81873403e-16 -0)
(-0 1.42490979 -3.36444743e-16 -1.42490979 -0 5.09272318e-16 3.36444743e-16 -5.09272318e-16 -0)
(-0 1.96776671 -3.55477713e-16 -1.96776671 -0 4.61021329e-16 3.55477713e-16 -4.61021329e-16 -0)
(-0 2.64315737 5.04757491e-16 -2.64315737 -0 -6.21732918e-16 -5.04757491e-16 6.21732918e-16 -0)
(-0 3.42900408 -5.73706705e-16 -3.42900408 -0 6.52167809e-16 5.73706705e-16 -6.52167809e-16 -0)
(-0 4.24839388 2.8562273e-16 -4.24839388 -0 -4.58967378e-16 -2.8562273e-16 4.58967378e-16 -0)
(-0 5.06264862 2.75930273e-16 -5.06264862 -0 -4.96378595e-16 -2.75930273e-16 4.96378595e-16 -0)
(-0 5.90545352 3.38253458e-16 -5.90545352 -0 -4.86726461e-16 -3.38253458e-16 4.86726461e-16 -0)
(-0 6.83217863 3.824547e-16 -6.83217863 -0 -4.74720919e-16 -3.824547e-16 4.74720919e-16 -0)
(-0 7.92066617 9.62697005e-16 -7.92066617 -0 -9.57514046e-16 -9.62697005e-16 9.57514046e-16 -0)
(-0 9.30139144 -2.01762898e-16 -9.30139144 -0 4.55880323e-16 2.01762898e-16 -4.55880323e-16 -0)
(-0 11.2183757 2.32568006e-16 -11.2183757 -0 3.9541236e-17 -2.32568006e-16 -3.9541236e-17 -0)
(-0 13.7121569 1.86017144e-16 -13.7121569 -0 -3.31956886e-16 -1.86017144e-16 3.31956886e-16 -0)
(-0 16.6582393 -2.07767132e-16 -16.6582393 -0 2.85326543e-16 2.07767132e-16 -2.85326543e-16 -0)
(-0 20.0523648 3.02526134e-16 -20.0523648 -0 1.0341345e-16 -3.02526134e-16 -1.0341345e-16 -0)
(-0 23.5280138 4.67668646e-16 -23.5280138 -0 -1.26159158e-16 -4.67668646e-16 1.26159158e-16 -0)
(-0 26.1011116 -3.84912257e-16 -26.1011116 -0 -1.19725041e-16 3.84912257e-16 1.19725041e-16 -0)
(-0 25.2004709 8.889383e-17 -25.2004709 -0 3.88514626e-17 -8.889383e-17 -3.88514626e-17 -0)
(-0 20.5777918 3.8386306e-18 -20.5777918 -0 -5.49837139e-20 -3.8386306e-18 5.49837139e-20 -0)
(-0 13.8012737 -3.47148128e-19 -13.8012737 -0 1.41635445e-17 3.47148128e-19 -1.41635445e-17 -0)
(-0 9.00012614 -0 -9.00012614 -0 -2.80126024e-21 -0 2.80126024e-21 -0)
(-0 8.95524767 -1.09029131e-19 -8.95524767 -0 -1.04845144e-21 1.09029131e-19 1.04845144e-21 -0)
(-0 8.4008792 -5.88267157e-18 -8.4008792 -0 4.54113814e-20 5.88267157e-18 -4.54113814e-20 -0)
(-0 6.6999717 1.76468998e-15 -6.6999717 -0 1.45019992e-17 -1.76468998e-15 -1.45019992e-17 -0)
(-0 2.87366029 1.60315661e-14 -2.87366029 -0 3.30879878e-14 -1.60315661e-14 -3.30879878e-14 -0)
(-0 -0.952390376 8.84428825e-15 0.952390376 -0 4.55235203e-14 -8.84428825e-15 -4.55235203e-14 -0)
(-0 -2.20007857 -2.4396639e-15 2.20007857 -0 -6.03250798e-17 2.4396639e-15 6.03250798e-17 -0)
(-0 -1.97383446 9.01292319e-18 1.97383446 -0 5.13152813e-20 -9.01292319e-18 -5.13152813e-20 -0)
(-0 -1.78914318 -9.7000608e-17 1.78914318 -0 -1.3593337e-16 9.7000608e-17 1.3593337e-16 -0)
(-0 -1.59832214 3.27974551e-14 1.59832214 -0 3.90686139e-14 -3.27974551e-14 -3.90686139e-14 -0)
(-0 -1.41179284 3.40845847e-14 1.41179284 -0 4.00814333e-14 -3.40845847e-14 -4.00814333e-14 -0)
(-0 -1.24063256 -1.13622011e-16 1.24063256 -0 -1.5264679e-16 1.13622011e-16 1.5264679e-16 -0)
(-0 -1.13635382 1.16747983e-19 1.13635382 -0 1.59425331e-19 -1.16747983e-19 -1.59425331e-19 -0)
(-0 -1.084933 -1.63443325e-17 1.084933 -0 8.66980386e-19 1.63443325e-17 -8.66980386e-19 -0)
(-0 -1.08205796 9.15260316e-18 1.08205796 -0 -1.10044063e-17 -9.15260316e-18 1.10044063e-17 -0)
(-0 -1.11915424 3.96459921e-16 1.11915424 -0 4.80966742e-16 -3.96459921e-16 -4.80966742e-16 -0)
(-0 -1.18059266 -2.77102528e-19 1.18059266 -0 -3.01402124e-19 2.77102528e-19 3.01402124e-19 -0)
(-0 -1.24086002 2.52663036e-16 1.24086002 -0 3.33655738e-16 -2.52663036e-16 -3.33655738e-16 -0)
(-0 -1.280191 2.08746842e-19 1.280191 -0 1.09904859e-18 -2.08746842e-19 -1.09904859e-18 -0)
(-0 -1.29440067 -1.23645096e-16 1.29440067 -0 -1.73948774e-16 1.23645096e-16 1.73948774e-16 -0)
(-0 -1.28056379 1.19551076e-16 1.28056379 -0 1.78546374e-16 -1.19551076e-16 -1.78546374e-16 -0)
(-0 -1.24314566 -9.24006899e-17 1.24314566 -0 -1.87552153e-16 9.24006899e-17 1.87552153e-16 -0)
(-0 -1.19554315 6.8417967e-18 1.19554315 -0 1.91612086e-17 -6.8417967e-18 -1.91612086e-17 -0)
(-0 -1.15200045 6.32036616e-17 1.15200045 -0 2.18389473e-16 -6.32036616e-17 -2.18389473e-16 -0)
(-0 -1.11718188 5.77228271e-17 1.11718188 -0 2.07804839e-16 -5.77228271e-17 -2.07804839e-16 -0)
(-0 -1.09646773 4.48432267e-17 1.09646773 -0 2.15881163e-16 -4.48432267e-17 -2.15881163e-16 -0)
(-0 -1.10019498 2.79771893e-18 1.10019498 -0 -1.41150136e-17 -2.79771893e-18 1.41150136e-17 -0)
(-0 -1.16262521 2.17503138e-15 1.16262521 -0 1.68584755e-14 -2.17503138e-15 -1.68584755e-14 -0)
(-0 -1.33697831 6.17804863e-16 1.33697831 -0 1.66880278e-14 -6.17804863e-16 -1.66880278e-14 -0)
(-0 -1.5859102 4.58640197e-20 1.5859102 -0 -3.73743488e-21 -4.58640197e-20 3.73743488e-21 -0)
(-0 -1.797045 1.10191699e-23 1.797045 -0 4.05390621e-19 -1.10191699e-23 -4.05390621e-19 -0)
(-0 -1.95473531 1.00187957e-33 1.95473531 -0 -3.98377681e-19 -1.00187957e-33 3.98377681e-19 -0)
(-0 -2.07693059 -0 2.07693059 -0 1.98494282e-14 -0 -1.98494282e-14 -0)
(-0 -2.16957505 -0 2.16957505 -0 1.99177753e-14 -0 -1.99177753e-14 -0)
(-0 -2.23846786 -0 2.23846786 -0 1.36429284e-18 -0 -1.36429284e-18 -0)
(-0 -2.28695007 -0 2.28695007 -0 -8.89676251e-19 -0 8.89676251e-19 -0)
(-0 -2.31762061 -0 2.31762061 -0 -7.59704079e-20 -0 7.59704079e-20 -0)
(-0 -2.3324038 -1.90816648e-33 2.3324038 -0 7.95702921e-20 1.90816648e-33 -7.95702921e-20 -0)
(-0 -2.33294489 -2.75614388e-20 2.33294489 -0 1.53894745e-21 2.75614388e-20 -1.53894745e-21 -0)
(-0 -2.32064482 7.67267709e-20 2.32064482 -0 -2.29402028e-14 -7.67267709e-20 2.29402028e-14 -0)
(-0 -2.29671148 -5.10883421e-20 2.29671148 -0 -2.3469723e-14 5.10883421e-20 2.3469723e-14 -0)
(-0 -2.26218753 5.10905699e-20 2.26218753 -0 -1.00730359e-20 -5.10905699e-20 1.00730359e-20 -0)
(-0 -2.21818432 -1.97997345e-20 2.21818432 -0 6.74771639e-20 1.97997345e-20 -6.74771639e-20 -0)
(-0 -2.16575142 -2.93678255e-20 2.16575142 -0 2.60173026e-19 2.93678255e-20 -2.60173026e-19 -0)
(-0 -2.10577984 -3.35265845e-20 2.10577984 -0 -5.43767862e-20 3.35265845e-20 5.43767862e-20 -0)
(-0 -2.03909379 4.55382516e-20 2.03909379 -0 -8.86994416e-19 -4.55382516e-20 8.86994416e-19 -0)
(-0 -1.96645639 6.71045784e-20 1.96645639 -0 9.63059528e-19 -6.71045784e-20 -9.63059528e-19 -0)
(-0 -1.88857277 -4.44474581e-20 1.88857277 -0 3.12367403e-14 4.44474581e-20 -3.12367403e-14 -0)
(-0 -1.80609463 -3.46687874e-20 1.80609463 -0 3.20636561e-14 3.46687874e-20 -3.20636561e-14 -0)
(-0 -1.71962519 -0 1.71962519 -0 3.78047575e-19 -0 -3.78047575e-19 -0)
(-0 -1.62972507 -0 1.62972507 -0 -0 -0 -0 -0)
(-0 -1.53691934 -0 1.53691934 -0 -4.61924849e-20 -0 4.61924849e-20 -0)
(-0 -1.44170427 -2.15290147e-20 1.44170427 -0 3.67116319e-14 2.15290147e-20 -3.67116319e-14 -0)
(-0 -1.34455372 3.89093022e-20 1.34455372 -0 7.40820485e-14 -3.89093022e-20 -7.40820485e-14 -0)
(-0 -1.24592547 1.56300915e-20 1.24592547 -0 3.70502119e-14 -1.56300915e-20 -3.70502119e-14 -0)
(-0 -1.14626642 -2.9044055e-20 1.14626642 -0 6.79858838e-20 2.9044055e-20 -6.79858838e-20 -0)
(-0 -1.04601477 -1.0644924e-20 1.04601477 -0 -1.82890384e-19 1.0644924e-20 1.82890384e-19 -0)
(-0 -0.945596826 -1.18618853e-20 0.945596826 -0 -2.45372698e-21 1.18618853e-20 2.45372698e-21 -0)
(-0 -0.845416619 6.44777108e-21 0.845416619 -0 1.1828163e-19 -6.44777108e-21 -1.1828163e-19 -0)
(-0 -0.745837945 1.20927143e-20 0.745837945 -0 -3.20363905e-20 -1.20927143e-20 3.20363905e-20 -0)
(-0 -0.647167726 -0 0.647167726 -0 3.20863705e-20 -0 -3.20863705e-20 -0)
(-0 -0.549651858 -0 0.549651858 -0 -3.34262297e-20 -0 3.34262297e-20 -0)
(-0 -0.453490226 -1.39197315e-20 0.453490226 -0 3.34725916e-20 1.39197315e-20 -3.34725916e-20 -0)
(-0 -0.35887734 3.54655525e-21 0.35887734 -0 1.34625517e-19 -3.54655525e-21 -1.34625517e-19 -0)
(-0 -0.266019932 2.77649528e-20 0.266019932 -0 -1.39634102e-19 -2.77649528e-20 1.39634102e-19 -0)
(-0 -0.175132652 -3.07967407e-21 0.175132652 -0 4.83456372e-21 3.07967407e-21 -4.83456372e-21 -0)
(-0 -0.0863956126 1.59526408e-20 0.0863956126 -0 2.7925582e-22 -1.59526408e-20 -2.7925582e-22 -0)
(-0 4.81526572e-05 -3.43845791e-20 -4.81526572e-05 -0 2.5224245e-19 3.43845791e-20 -2.5224245e-19 -0)
(-0 0.0840829776 5.11185037e-21 -0.0840829776 -0 -5.56618276e-14 -5.11185037e-21 5.56618276e-14 -0)
(-0 0.165606506 2.85452205e-20 -0.165606506 -0 -5.66574434e-14 -2.85452205e-20 5.66574434e-14 -0)