/*--------------------------------*- C++ -*----------------------------------*\
| =========                 |                                                 |
| \\      /  F ield         | OpenFOAM: The Open Source CFD Toolbox           |
|  \\    /   O peration     | Version:  2506                                  |
|   \\  /    A nd           | Website:  www.openfoam.com                      |
|    \\/     M anipulation  |                                                 |
\*---------------------------------------------------------------------------*/
FoamFile
{
    version     2.0;
    format      ascii;
    arch        "LSB;label=32;scalar=64";
    class       volScalarField;
    location    "2644";
    object      omega;
}
// * * * * * * * * * * * * * * * * * * * * * * * * * * * * * * * * * * * * * //

dimensions      [0 0 -1 0 0 0 0];

internalField   nonuniform List<scalar> 
15600
(
7471.77452
7464.36788
7508.93687
7778.92713
8410.45208
8917.53616
8999.77709
8703.03711
8150.47037
7440.93941
6670.25213
5992.40171
5432.50962
4965.40349
4572.10357
4238.14219
3940.69885
3645.25312
3352.25235
3067.18282
2794.92192
2541.95961
2325.5294
2151.79932
2018.70061
1925.52348
1872.79887
1861.92789
1867.944
1867.94501
1867.94601
1867.94702
1867.94797
1867.94886
1867.94968
1867.95042
1867.95107
1867.95163
1867.95209
1867.95245
1867.95272
1867.95289
1867.95297
1867.95297
1867.95289
1867.95273
1867.95251
1867.95223
1867.9519
1867.95154
1867.95114
1867.95071
1867.95026
1867.94981
1867.94934
1867.94888
1867.94843
1867.94798
1867.94755
1867.94713
1867.94674
1867.94637
1867.94601
1867.94569
1867.94538
1867.9451
1867.94484
1867.9446
1867.94438
1867.94418
1867.944
1867.94383
1867.94368
1867.94355
1867.94342
1867.94331
1867.94321
1867.94324
1867.94327
1867.9433
1867.94332
1867.94334
1867.94334
1867.94333
1867.9433
1867.94325
1867.94319
1867.9431
1867.94298
1867.94284
1867.94269
1867.94255
1861.92732
1872.79861
1925.52322
2018.70036
2151.79902
2325.52907
2541.95946
2794.9221
3067.18358
3352.25407
3645.25631
3940.70405
4238.14968
4572.11333
4965.41557
5432.52425
5992.41949
6670.27435
7440.9693
8150.51286
8703.09799
8999.86632
8917.66502
8410.62004
7779.0699
7509.00146
7464.3791
7471.77449
1261.96988
1260.30576
1271.50788
1314.21222
1416.35308
1500.42144
1515.73639
1467.41338
1375.613
1256.9904
1127.45123
1012.93131
918.220174
839.232094
772.737121
716.305797
666.149013
616.450808
567.125343
519.07357
473.128974
430.389656
393.724399
364.238184
341.666638
325.906782
317.104808
315.840856
316.888698
316.567691
316.440311
316.335712
316.24818
316.170493
316.099573
316.030963
315.963034
315.894891
315.826628
315.758028
315.688985
315.610708
315.559046
315.516128
315.473078
315.430278
315.388089
315.346844
315.306846
315.268372
315.231684
315.197029
315.164642
315.134749
315.107566
315.083288
315.062059
315.043941
315.028873
315.016671
315.007101
314.999955
314.995185
314.992757
314.992613
314.994467
314.998087
315.003238
315.009823
315.017816
315.027226
315.037868
315.049483
315.061783
315.074586
315.087845
315.101621
315.116088
315.131318
315.147529
315.164998
315.18414
315.205388
315.2294
315.256595
315.289101
315.348861
315.421149
315.497826
315.59277
315.674479
316.014888
315.386391
316.969694
325.794878
341.509157
364.022679
393.416803
429.96787
472.519378
518.216653
566.033783
615.211658
664.902938
715.246144
771.917548
838.61327
917.751607
1012.51875
1126.89786
1256.13054
1374.75857
1466.81383
1515.71222
1501.94814
1420.43414
1326.60456
1283.94718
1272.74891
1265.14292
419.25023
418.606761
426.633633
439.236619
468.582497
493.360616
498.462631
483.114943
453.262214
414.443271
371.928139
334.221695
303.032305
277.052643
255.197037
236.64024
220.11423
203.744846
187.464142
171.563568
156.342236
142.207792
130.073547
120.303254
112.860389
107.741864
105.127814
105.495021
106.139718
105.820803
105.605152
105.426963
105.268528
105.123322
104.985514
104.850106
104.715193
104.580228
104.445596
104.311129
104.176291
104.044388
103.949691
103.85857
103.769797
103.683976
103.601631
103.523213
103.449104
103.379632
103.31509
103.255747
103.201848
103.153621
103.111276
103.074983
103.044828
103.02076
103.002532
102.989719
102.981841
102.978497
102.979543
102.984872
102.994314
103.007371
103.023615
103.042635
103.064252
103.088366
103.115005
103.143767
103.174263
103.205926
103.238451
103.271753
103.305916
103.341158
103.377659
103.415775
103.455988
103.498987
103.545541
103.596729
103.653401
103.718512
103.823311
103.945846
104.079102
104.234896
104.386096
104.748776
104.588596
104.610559
107.331826
112.397009
119.739012
129.361207
141.300063
155.128112
169.965795
185.509873
201.57893
217.96912
234.827932
253.822755
276.076204
302.377815
333.742175
371.32091
413.425792
452.242139
482.450278
498.577736
495.268837
473.189451
454.048384
445.476623
438.657124
426.072245
200.305427
198.568056
205.025265
209.587458
218.381433
226.067008
227.947651
221.153254
207.638394
189.962696
170.609716
153.418377
139.208333
127.399608
117.475551
109.027367
101.448874
93.9261391
86.4155961
79.0523709
72.0016333
65.4926048
59.9174291
55.4378671
52.0790429
49.8867707
49.0652248
49.8649118
50.3299142
49.9549505
49.6366577
49.3646258
49.1175455
48.8895309
48.6738061
48.4658528
48.264021
48.0680649
47.8781792
47.6930537
47.5077052
47.3695679
47.2482085
47.1341078
47.0269858
46.9270209
46.8343084
46.748879
46.6707177
46.5997823
46.5360276
46.4794124
46.4299062
46.3874939
46.352169
46.3239088
46.302626
46.2881076
46.2799562
46.2776188
46.2805127
46.2881869
46.3004861
46.3173131
46.33849
46.3634962
46.3918847
46.423236
46.457404
46.4942883
46.5340422
46.5761401
46.6201825
46.6656466
46.7121711
46.7596809
46.8083118
46.8583464
46.9100728
46.9639821
47.0207479
47.0813153
47.1467969
47.2186882
47.2983993
47.3896079
47.527215
47.6868037
47.8638201
48.0672073
48.2782374
48.6603659
48.5809384
48.1223644
49.1218178
51.2807135
54.5167379
58.8048509
64.1129758
70.2167802
76.7716761
83.667198
90.8800336
98.3858995
106.332552
115.316457
125.76423
138.015058
152.483664
169.544436
188.332697
205.753001
219.319991
226.453801
225.491907
218.750694
219.263386
223.353662
221.755358
209.568368
121.594655
118.373515
123.199365
124.860137
124.919245
124.986045
125.272327
121.630646
114.287196
104.618595
94.0689032
84.7015165
76.9736851
70.5757099
65.2034299
60.6005646
56.4121202
52.2300409
48.0299563
43.8947476
39.9447385
36.3394424
33.2751884
30.8406429
29.0857689
28.081106
27.9916182
28.8203645
29.0633869
28.5926066
28.1762713
27.8255205
27.5174971
27.2439504
26.996151
26.7684742
26.5579736
26.3630313
26.1822063
26.0116062
25.8698557
25.764008
25.6709477
25.5867336
25.5106621
25.4422399
25.3809926
25.3264735
25.2782713
25.2360182
25.1994006
25.1681589
25.1420865
25.1210291
25.1048745
25.0935284
25.0868719
25.0847088
25.0867165
25.0924697
25.1015405
25.113633
25.1287039
25.1467634
25.1677478
25.1913111
25.217161
25.2450266
25.2748903
25.3067154
25.3406301
25.3764754
25.4138897
25.4525045
25.492066
25.5325665
25.5741911
25.617261
25.6621312
25.7093513
25.7596766
25.8141554
25.8740743
25.9411517
26.0172331
26.1058267
26.2439401
26.4074554
26.5952843
26.8153789
27.0578836
27.4400514
27.4057818
26.8159443
27.1247165
28.1469344
29.7898704
32.0146307
34.7670214
37.9061438
41.2831356
44.8554228
48.6467242
52.6921048
57.1329682
62.2024279
68.0725057
74.9011234
82.8631043
92.0250148
101.802741
110.809413
117.674011
120.935198
120.212083
118.103444
124.25274
134.38201
138.889464
130.975909
86.2889088
82.510424
86.0996268
86.983688
82.7010479
78.097449
77.1141991
74.8525764
70.3947269
64.4858468
58.0821447
52.4130012
47.7519161
43.9109791
40.6824208
37.8797573
35.2705145
32.6391251
29.9778927
27.3520701
24.8637468
22.6343558
20.7706573
19.329961
18.3688431
17.9539536
18.1687053
18.8461323
18.8762724
18.3537902
17.9145138
17.5662064
17.2799475
17.0413721
16.8380176
16.6617378
16.5073914
16.3715033
16.2513846
16.1478019
16.0765193
16.0228647
15.9773974
15.9380035
15.9039166
15.8745382
15.8493459
15.8278867
15.8097717
15.7946743
15.7823311
15.7725373
15.7651423
15.7600465
15.757192
15.756543
15.7580539
15.7616291
15.7670877
15.7741804
15.7826637
15.7924
15.8034409
15.8158728
15.8297216
15.8448
15.8609535
15.8780395
15.8960144
15.9150596
15.9352643
15.9565846
15.9787946
16.001669
16.0250622
16.0490099
16.0736993
16.0994254
16.1265255
16.1554956
16.1870163
16.2220274
16.2617134
16.3076611
16.3617175
16.4271596
16.5351382
16.6693801
16.8307342
17.0271297
17.2571486
17.6021008
17.6105564
17.0725063
17.0866119
17.5856489
18.4868554
19.7472068
21.3114287
23.0844387
24.9955675
27.0260909
29.2039143
31.5733809
34.2519495
37.3434033
40.9216263
45.0633706
49.8370348
55.1858743
60.6669444
65.6031001
69.198014
70.6003652
69.8943315
69.2404144
75.7041651
87.3298795
96.0977387
93.5386021
66.1501375
63.023099
66.1838467
67.5914496
61.6300111
53.511269
51.2444048
49.5986331
46.6814995
42.8050643
38.6482846
34.9918287
31.9996362
29.5446739
27.4687897
25.6247214
23.8531367
22.0440271
20.2052247
18.397586
16.7124299
15.2434173
14.0499316
13.1710357
12.6552553
12.5450372
12.8472579
13.3335134
13.2344395
12.7501065
12.3731429
12.0956226
11.8829943
11.7168305
11.5832763
11.4736236
11.3823304
11.305638
11.2400778
11.1974105
11.1705342
11.1521759
11.1380213
11.1268979
11.1182753
11.111741
11.1069483
11.1036076
11.1014795
11.1003719
11.1001395
11.1006799
11.10193
11.1038644
11.106487
11.1098175
11.1138665
11.1186062
11.1239438
11.1297364
11.1358471
11.1422228
11.1489539
11.1561539
11.1638852
11.172048
11.1805422
11.1892816
11.1983115
11.2077745
11.217758
11.2282588
11.2391368
11.2502468
11.2615009
11.2729437
11.2847362
11.2971229
11.3103888
11.3249417
11.3413405
11.3603525
11.382959
11.4104726
11.4444927
11.4878112
11.5629525
11.6619512
11.7862943
11.9433492
12.1370091
12.4235414
12.4621718
12.044326
11.9506729
12.1968218
12.7235247
13.4911657
14.4513473
15.5374221
16.7109299
17.9611849
19.3085614
20.789524
22.4908665
24.4654007
26.7467995
29.373489
32.3684904
35.6440606
38.8713696
41.6949162
43.6540188
44.2693188
43.7409544
43.611521
48.6428955
58.922039
68.994208
70.4283933
52.0162831
50.1555387
53.5249933
56.1867233
50.5269548
39.8109889
36.055542
34.6103183
32.577477
29.9080588
27.0903992
24.6408948
22.6475605
21.0155933
19.6154679
18.3275476
17.0438532
15.7185745
14.3734381
13.0683183
11.8831995
10.8870478
10.1104377
9.57774531
9.32202052
9.35922288
9.65160649
9.9828043
9.84229714
9.44976339
9.16483712
8.96836485
8.82666904
8.72212182
8.64254203
8.58059386
8.5317073
8.49296526
8.46480388
8.4521585
8.44733281
8.44654409
8.44761538
8.44987994
8.45301063
8.45675737
8.46091551
8.46531918
8.4698365
8.47436772
8.47884538
8.48323191
8.48751769
8.49171947
8.49587485
8.50003094
8.50422526
8.50846218
8.51269333
8.51682987
8.52078865
8.52455484
8.52822932
8.53192916
8.53572918
8.53956607
8.54338278
8.54714356
8.55088685
8.55472785
8.55875046
8.56296595
8.56728212
8.57159706
8.57585189
8.58008856
8.58444134
8.58911177
8.59433905
8.60045979
8.60793448
8.61739141
8.6296398
8.64575689
8.66709203
8.69597118
8.74780278
8.82009131
8.91446065
9.03730108
9.19471573
9.42617073
9.48188777
9.18022192
9.05981076
9.17979599
9.50536054
10.0039935
10.6354674
11.351112
12.1268206
12.955178
13.8496031
14.8373353
15.9801289
17.3074693
18.8343314
20.5791677
22.5455064
24.6502651
26.6577512
28.3692203
29.5174403
29.8336888
29.5046468
29.5806158
33.1309405
41.1444245
50.4125892
53.7870789
41.1421574
40.4918908
44.2649122
48.3684099
44.2637603
32.2237331
26.6528768
25.1284198
23.6063351
21.6938759
19.7228424
18.0456096
16.6888868
15.5761303
14.5967425
13.6544819
12.6810421
11.6715458
10.6578546
9.69651787
8.85284009
8.17328072
7.67009868
7.3561889
7.25014163
7.34982144
7.60139847
7.82739863
7.69344456
7.39634409
7.19192148
7.05827025
6.96685155
6.90309133
6.85737053
6.82407136
6.79974498
6.78194322
6.77509479
6.77639885
6.78167151
6.78877513
6.79650727
6.80446724
6.81245174
6.82030921
6.82791931
6.83518828
6.84204572
6.84844377
6.85435776
6.85978479
6.86474262
6.86926864
6.87341538
6.87724115
6.88079436
6.88409397
6.88711389
6.88979394
6.89207909
6.89397201
6.89557315
6.89699562
6.89831504
6.89949947
6.90052081
6.90135069
6.90202209
6.90263046
6.90325411
6.90391035
6.90453556
6.90505415
6.90542388
6.90568214
6.90594249
6.90637491
6.90718507
6.9086591
6.91118771
6.91530065
6.92168283
6.9312404
6.94512884
6.96530361
7.00226693
7.05657871
7.12985092
7.2275349
7.35626548
7.5443228
7.60834638
7.39689447
7.2807029
7.33556461
7.54595089
7.88713422
8.32630168
8.82652918
9.37092778
9.95390233
10.5843935
11.282773
12.0934652
13.03429
14.1111229
15.3317743
16.6913893
18.1199821
19.4490157
20.5599897
21.2930976
21.4919568
21.3023201
21.4479507
23.9216096
29.8618072
37.5224619
41.3404368
32.6931662
32.8761132
36.9100912
42.2467741
40.2713668
28.3130175
20.7574992
18.9008743
17.6468041
16.2159259
14.7946882
13.6276665
12.6909529
11.9184398
11.2138103
10.5018285
9.74486484
8.96276873
8.19181566
7.48118532
6.88007113
6.41705413
6.09411842
5.91683132
5.8937705
6.01341724
6.22132707
6.37989025
6.26811877
6.04850505
5.90335857
5.81270982
5.75387558
5.71542832
5.69000466
5.67339358
5.66307668
5.65806631
5.66132
5.66906521
5.67881125
5.68925608
5.69968126
5.70983048
5.71957219
5.72881182
5.7374775
5.74551661
5.75289359
5.75958963
5.76560356
5.77095096
5.77566356
5.77978841
5.78338414
5.78651283
5.78922674
5.79155157
5.79347336
5.79494865
5.79593863
5.79645432
5.79659253
5.79646023
5.79613764
5.79561446
5.79486811
5.79387618
5.79266728
5.79132225
5.78991327
5.78846067
5.78691946
5.78523181
5.78336632
5.78135641
5.77930003
5.77734404
5.77566948
5.77452634
5.77425524
5.77531541
5.77830168
5.78399647
5.79340899
5.80820666
5.83564715
5.87792625
5.9365428
6.01619792
6.12333445
6.27868567
6.3457136
6.19962124
6.09802767
6.11860193
6.25917762
6.50206976
6.82077245
7.18644412
7.58632118
8.01606369
8.48195543
8.99966701
9.60203206
10.3006597
11.0970287
11.9933752
12.9815084
14.0042243
14.938614
15.7090351
16.2151013
16.3603109
16.2532152
16.4090779
18.1677136
22.5306481
28.5742282
32.1134844
26.219485
26.8494558
30.8791375
37.0385511
37.2735683
26.5613779
17.2082201
14.7563137
13.5973101
12.4650546
11.4036805
10.5696938
9.91197791
9.36659588
8.84862079
8.30051641
7.70632033
7.09809593
6.51128057
5.98570078
5.5565604
5.24055403
5.03505134
4.9415618
4.96252833
5.08258052
5.25272205
5.36799725
5.27954986
5.11755259
5.01389616
4.95196385
4.91411298
4.89147733
4.87841301
4.87173506
4.8695193
4.87218927
4.88037095
4.8910663
4.9026874
4.91439086
4.92571822
4.93649619
4.94663623
4.95607797
4.96477863
4.97271029
4.97985821
4.98622079
4.9918105
4.99665334
5.00078845
5.00426744
5.00715106
5.00950208
5.01137379
5.01279515
5.01375962
5.01423448
5.01419144
5.01364568
5.01268995
5.01143108
5.00994982
5.00824332
5.0062935
5.0040827
5.00163601
4.99902322
4.99631064
4.99352035
4.99062038
4.98756582
4.984333
4.98095221
4.97750947
4.97413417
4.97098846
4.96829529
4.96635772
4.96558226
4.96649578
4.96978783
4.97635426
4.98763478
5.00871432
5.04270198
5.09085817
5.15732798
5.24808708
5.37865329
5.44557181
5.34602765
5.26134493
5.26400934
5.36035481
5.53853705
5.77731089
6.05368526
6.3575498
6.685535
7.04236771
7.44048692
7.90485498
8.4435538
9.05599752
9.74155805
10.4910301
11.2577723
11.9497143
12.5151907
12.8874592
13.0029691
12.9417078
13.0832106
14.368089
17.604941
22.3034019
25.3420754
21.3057206
22.1159738
25.9104023
32.4403693
34.6440724
25.9577056
15.2869083
12.0211705
10.8270667
9.86758049
9.03625747
8.4140541
7.93833222
7.54444393
7.15641915
6.72988576
6.26198779
5.78826484
5.34043253
4.94963924
4.64084699
4.42378434
4.29426731
4.25159983
4.29459047
4.4069351
4.54660084
4.63348421
4.5651326
4.44501565
4.37037458
4.32790395
4.30391523
4.29148751
4.28624063
4.28572656
4.2883867
4.29568536
4.30631404
4.31830728
4.33059833
4.34261289
4.35404226
4.36476414
4.37471738
4.38386355
4.39217862
4.39965065
4.40627831
4.41207104
4.41704994
4.42124734
4.42470664
4.42748164
4.4296336
4.43122483
4.43230856
4.43291563
4.43304453
4.43267016
4.43177177
4.4303667
4.42854883
4.42642372
4.42406522
4.42147636
4.41864317
4.41555173
4.41222435
4.40872228
4.4051066
4.4014005
4.39758161
4.39361486
4.38948245
4.38521225
4.38088096
4.37660425
4.37252931
4.36885787
4.36586354
4.36391164
4.36347552
4.36517215
4.36980631
4.37863507
4.39522691
4.42329742
4.46370493
4.52021495
4.59825185
4.70963409
4.77464811
4.70827918
4.63975352
4.63354818
4.70095329
4.83472791
5.01797292
5.23210994
5.46891866
5.7258329
6.00666362
6.32156296
6.68998676
7.1178761
7.60374462
8.14553776
8.734096
9.33114466
9.8658505
10.3006001
10.5883414
10.6843909
10.6474569
10.7653966
11.7273011
14.1708579
17.827419
20.364543
17.5697627
18.4131979
21.8354778
28.3438486
32.0980553
25.7826245
14.564793
10.278498
8.93712574
8.06362061
7.3732406
6.8803331
6.51918093
6.22448317
5.92725129
5.59171585
5.22138921
4.85028867
4.50564325
4.21174224
3.98664128
3.8361775
3.75590381
3.74384508
3.79668546
3.89860395
4.01426278
4.0820699
4.03003332
3.94051554
3.88655875
3.8576766
3.8431932
3.83764354
3.8375766
3.8410904
3.84712027
3.85694978
3.86879703
3.88129884
3.89370631
3.90561232
3.91679992
3.92718032
3.93671112
3.94536912
3.95314338
3.96003316
3.9660466
3.97120086
3.97552302
3.97904972
3.98182706
3.98391005
3.98535986
3.98623806
3.98659758
3.98647061
3.98585939
3.98474471
3.98311174
3.98098147
3.97845241
3.97561981
3.97255338
3.9692609
3.96573203
3.96195584
3.95795247
3.95377649
3.94948446
3.94510037
3.94060923
3.93598367
3.93121053
3.92631578
3.92136869
3.9164739
3.91176629
3.9074304
3.90371587
3.90095463
3.89957636
3.90013919
3.90337262
3.91038657
3.92383484
3.94734108
3.98178743
4.03052379
4.09841286
4.1945854
4.25669157
4.21409932
4.15991548
4.14994183
4.19798562
4.30029859
4.44354103
4.61256804
4.80062334
5.00583622
5.23147707
5.48602368
5.78495878
6.13283871
6.52786589
6.96732479
7.44257618
7.92193696
8.34957289
8.69644217
8.9273882
9.00893636
8.98384455
9.07558007
9.80913408
11.689595
14.5585718
16.6622271
14.7000241
15.5081929
18.5087264
24.7093288
29.5337642
25.5363437
14.7222223
9.26185289
7.66294911
6.8129677
6.19997436
5.78186935
5.48944665
5.25762729
5.02298159
4.75481313
4.45859466
4.16454669
3.89566883
3.67113987
3.50441167
3.39910352
3.35093145
3.3571257
3.41317271
3.50437195
3.60124537
3.65597013
3.61699814
3.55021056
3.51139632
3.49233855
3.48464676
3.48395157
3.48749257
3.4937671
3.50217314
3.51345034
3.52590198
3.53854177
3.55082489
3.56245327
3.57326954
3.58320834
3.5922412
3.60035629
3.60755263
3.61383802
3.61922785
3.62374522
3.62742179
3.63029746
3.63242036
3.63384633
3.6346364
3.63485145
3.63454428
3.63374825
3.63246873
3.63069126
3.62840629
3.62564626
3.6225006
3.61905957
3.6153895
3.61150206
3.60739012
3.60304518
3.59848561
3.59376075
3.5889234
3.58399822
3.57897599
3.57383555
3.56856742
3.56319609
3.55778479
3.55242913
3.54725366
3.54242855
3.53818338
3.53482221
3.53273812
3.53244015
3.53459399
3.54018917
3.55130159
3.57120298
3.60091165
3.64339967
3.70299437
3.78683337
3.84550617
3.82004532
3.77814208
3.76728711
3.80219076
3.88166077
3.9952435
4.13052853
4.28196905
4.44831313
4.63251286
4.84177964
5.08864858
5.37672781
5.70421176
6.0681315
6.46056948
6.85506992
7.20664481
7.4916284
7.68222721
7.75184617
7.73117417
7.79683543
8.36643285
9.83790537
12.1135319
13.8608181
12.4631915
13.209743
15.7961199
21.5130519
26.9517938
24.9920883
15.3667636
8.79211774
6.82735738
5.94625188
5.36816066
4.98934537
4.7352304
4.54138013
4.3488672
4.12975997
3.88900148
3.65228486
3.43891146
3.26425162
3.13859631
3.06421878
3.0370901
3.0539372
3.10963348
3.19083863
3.27300684
3.31862238
3.29015515
3.24060606
3.21319952
3.20150418
3.19887282
3.20177108
3.20795892
3.21620831
3.22636477
3.23852005
3.25127366
3.26388988
3.27596089
3.28726297
3.29767947
3.30716262
3.31569494
3.32327384
3.32990644
3.33560763
3.34039878
3.34430796
3.34737065
3.34962954
3.35113454
3.35194226
3.35211376
3.35170951
3.35078241
3.34936711
3.34747169
3.34508576
3.34221085
3.33888228
3.33518056
3.33119323
3.32698414
3.32256825
3.31794119
3.31309645
3.30805098
3.30285
3.29754327
3.29215611
3.2866839
3.28111051
3.27542944
3.26966399
3.26387239
3.25814278
3.25259089
3.24737463
3.24270643
3.23886659
3.23621677
3.23522416
3.23649939
3.24093179
3.25021109
3.26719923
3.29303785
3.33037497
3.38304515
3.4566825
3.51168625
3.49860319
3.46700015
3.45686165
3.48277321
3.54533577
3.63640828
3.74579776
3.86900328
4.00533099
4.15754727
4.33187743
4.53861732
4.78069341
5.05645166
5.36288084
5.69285984
6.02411596
6.31964437
6.5591771
6.71955167
6.77854445
6.75770298
6.79860011
7.24686118
8.41603373
10.2421574
11.7009832
10.6918047
11.3702474
13.5793142
18.7278596
24.4075271
24.0229654
16.1629729
8.76379773
6.31457236
5.35089208
4.77662393
4.41334256
4.17734177
4.00445347
3.83931161
3.65533813
3.45569055
3.26152948
3.08896599
2.95045161
2.85400531
2.80101702
2.78770202
2.81048358
2.86399538
2.93629475
3.00691552
3.04612803
3.02620433
2.99001605
2.97145151
2.96547096
2.96676875
2.9724564
2.98069295
2.99040664
3.00193567
3.0146691
3.02758506
3.0401223
3.05196854
3.06295288
3.07298798
3.08204
3.09010077
3.09717566
3.10327889
3.10843154
3.1126603
3.11599764
3.11848254
3.12016029
3.12108253
3.12130681
3.12089446
3.11990588
3.1183944
3.11639615
3.11392168
3.11096769
3.10754602
3.10368685
3.09946686
3.09497131
3.09026242
3.08535791
3.08025584
3.07495125
3.06945996
3.06382399
3.05809074
3.05228619
3.04640949
3.0404486
3.03439938
3.02828411
3.02215697
3.01609976
3.01022063
3.00466687
2.99963601
2.99538765
2.99225613
2.99067228
2.99119852
2.99463954
3.00241326
3.01699191
3.03959478
3.07259372
3.1193781
3.18443177
3.23570663
3.23155742
3.20847473
3.19988214
3.21961705
3.26946672
3.34311831
3.43220431
3.53315535
3.64578225
3.77274493
3.91948089
4.09455125
4.30037234
4.53552927
4.79706617
5.07867755
5.36145811
5.6143273
5.81913174
5.9557299
6.00477739
5.98067704
5.99847341
6.35429086
7.2967799
8.77922451
10.0050434
9.26726518
9.87957764
11.7589932
16.3189641
21.9790802
22.7081329
16.7971968
9.1247595
6.05677806
4.95465139
4.35805295
3.99313548
3.76133372
3.59757216
3.44907343
3.28972239
3.12031627
2.95775537
2.81536853
2.70328364
2.62780573
2.58970011
2.58539545
2.61115714
2.66161556
2.7261621
2.78767919
2.82237673
2.80950178
2.78389286
2.77237125
2.77097781
2.77544906
2.78340352
2.79331727
2.80431813
2.81683159
2.82998837
2.8430135
2.85547007
2.86711482
2.87781575
2.8875077
2.89616846
2.90379818
2.91040947
2.91602305
2.92066572
2.92436913
2.92716986
2.92911029
2.93023827
2.93060729
2.93027605
2.92930649
2.92775927
2.92568853
2.92313212
2.92010382
2.91661371
2.91266953
2.90830248
2.90358614
2.89860402
2.8934174
2.88804644
2.88249122
2.876748
2.8708317
2.86478187
2.85864421
2.85244542
2.84618775
2.83986245
2.83346724
2.82702354
2.82058213
2.81421951
2.80803721
2.80217321
2.79681189
2.79219463
2.78863165
2.78652176
2.78638468
2.7889526
2.79544297
2.8079843
2.8278273
2.85710563
2.89881049
2.9565354
3.00412718
3.0063866
2.99027562
2.98359468
2.99908307
3.03923998
3.09917716
3.17205062
3.25513452
3.3486939
3.45532931
3.57983402
3.7294042
3.90606167
4.10868396
4.33439695
4.57770933
4.82241966
5.04183387
5.21891944
5.32693352
5.35254232
5.33454153
5.34247276
5.62642824
6.39673679
7.61365028
8.65061931
8.10532805
8.65664726
10.2547498
14.2456289
19.7394262
21.2822039
17.0396
9.80279364
6.01946363
4.71339119
4.06876094
3.68820472
3.45025004
3.28696478
3.14708665
3.00433305
2.85690208
2.71776851
2.59778263
2.50514553
2.44480747
2.41706176
2.4185222
2.44540334
2.49247738
2.55035901
2.60467145
2.63619943
2.62922959
2.61217141
2.60640582
2.6088115
2.61594165
2.62581761
2.6371701
2.64931947
2.66260303
2.67611078
2.68923778
2.70163829
2.71312048
2.72358208
2.73297548
2.74128866
2.74852949
2.75471743
2.75987938
2.76404764
2.76725862
2.76955295
2.77097637
2.77157942
2.77141759
2.77055102
2.7690426
2.76695361
2.76433939
2.7612397
2.75767925
2.75366868
2.74921515
2.74435159
2.73914921
2.73369033
2.72803596
2.72220836
2.71620934
2.71003605
2.70370264
2.69724688
2.69071335
2.68412956
2.67750033
2.67081954
2.66408628
2.65732121
2.65057231
2.64391161
2.63743484
2.63127172
2.6255949
2.62062955
2.61666433
2.61406956
2.6133268
2.61510534
2.62046857
2.63125174
2.6486998
2.67473747
2.71200178
2.76339023
2.80740672
2.81420327
2.80373964
2.79905601
2.81162352
2.84428874
2.89325786
2.95297558
3.02148494
3.09945548
3.1894562
3.29574168
3.42442176
3.5772045
3.75329914
3.94988777
4.16228888
4.37643882
4.5685673
4.7102225
4.77715873
4.7764605
4.76764321
4.79492757
5.02141912
5.65966838
6.66925128
7.55230333
7.14547994
7.641773
9.00283708
12.4652515
17.7140613
19.8386027
17.0094845
10.6350229
6.18883894
4.60262661
3.88129569
3.47195673
3.21926658
3.04962606
2.91205505
2.77957745
2.647699
2.5257746
2.42238818
2.34407498
2.29466399
2.27406843
2.27906362
2.30588906
2.34954197
2.40173147
2.45032345
2.47965865
2.47771252
2.46770142
2.46675389
2.4723976
2.48183047
2.49339675
2.50603017
2.51923029
2.53316927
2.54700203
2.56024722
2.57262777
2.58399132
2.5942591
2.60339801
2.61140528
2.61829616
2.62409677
2.62884009
2.63256379
2.63530901
2.63712043
2.63804726
2.63814287
2.637465
2.63607552
2.63403865
2.63141661
2.62826628
2.624635
2.62055268
2.61602715
2.6110685
2.60571091
2.60002387
2.59408915
2.587968
2.58168458
2.57524207
2.56863825
2.56188662
2.55502372
2.54809359
2.54112466
2.53412387
2.52708712
2.52001447
2.51292588
2.50586702
2.49890616
2.49213393
2.48567268
2.47968447
2.47437989
2.4700282
2.46697411
2.46566482
2.46671445
2.47106375
2.4803013
2.49563945
2.51881683
2.55215619
2.59800626
2.63858965
2.64852355
2.64258551
2.63981766
2.65036756
2.67715428
2.71721562
2.76610079
2.82255311
2.8875968
2.9637861
3.0549142
3.16622086
3.2991575
3.45330133
3.62582066
3.81284731
4.00165284
4.15935666
4.25638125
4.28832247
4.271114
4.26635766
4.324497
4.51027167
5.04668998
5.89270987
6.64950349
6.34361127
6.79071727
7.9532385
10.9377383
15.8633242
18.431698
16.7585913
11.4519208
6.56438037
4.61231789
3.77956875
3.32739835
3.05192835
2.86998845
2.72940203
2.60197666
2.48047659
2.37088014
2.27963977
2.21178839
2.17018191
2.15440569
2.16137392
2.18740059
2.22774879
2.27509066
2.31912896
2.3469922
2.34938457
2.34528897
2.34846389
2.35693912
2.36842459
2.38152514
2.39533106
2.40951978
2.42405696
2.4382144
2.45160507
2.46400505
2.47529313
2.48540969
2.49433405
2.50207211
2.50864634
2.51408948
2.51844054
2.52174261
2.52404159
2.52538626
2.52582948
2.52542765
2.52424102
2.52233353
2.5197711
2.51661719
2.51293368
2.50877689
2.50417171
2.49912932
2.49366236
2.48780595
2.48162851
2.47521181
2.46861786
2.4618725
2.45497997
2.44793844
2.44076084
2.43348299
2.42614891
2.41878808
2.41140919
2.40400959
2.39658992
2.38916949
2.38179208
2.37452285
2.36744794
2.36068299
2.3543805
2.34873776
2.3440065
2.34050822
2.33865897
2.33902402
2.34244354
2.35029956
2.36375399
2.3843776
2.41421461
2.45517772
2.49248723
2.50450333
2.50214585
2.50111515
2.51024925
2.53233844
2.5650501
2.60489218
2.65124153
2.70542719
2.76999922
2.84834429
2.94500592
3.06121888
3.19697124
3.34929794
3.51491061
3.67298053
3.78876301
3.85029952
3.85861663
3.83087713
3.82809456
3.90638235
4.07268789
4.53031187
5.2459667
5.8984818
5.6670588
6.07033567
7.06684197
9.62730071
14.1619892
17.0870832
16.3394532
12.0901455
7.15523824
4.74428491
3.75594661
3.24435502
2.93764586
2.73767873
2.58922319
2.46226766
2.34677082
2.24550649
2.16286522
2.10246684
2.06627979
2.05358384
2.06140609
2.08616193
2.12339209
2.16660557
2.207012
2.23394249
2.24013588
2.241092
2.24786489
2.25887211
2.27223222
2.28676154
2.30166035
2.31680491
2.3319154
2.34641025
2.3599773
2.37243472
2.3836865
2.3936891
2.40243283
2.40993188
2.41621591
2.42132431
2.42530218
2.42819808
2.43006279
2.43094934
2.43091441
2.43001769
2.42832224
2.42589438
2.42280217
2.41911161
2.41489721
2.4102082
2.40507265
2.39950494
2.39352007
2.38715395
2.38047435
2.37356372
2.36648523
2.35926622
2.35191171
2.34442001
2.3368036
2.32909796
2.32134765
2.3135833
2.305815
2.29804105
2.29026231
2.28249742
2.27478873
2.26719882
2.25980983
2.25273132
2.24610697
2.24012199
2.23501204
2.23107751
2.22870604
2.22841928
2.23097291
2.23757572
2.24932838
2.26764885
2.29433455
2.33094932
2.36515012
2.37844787
2.37887685
2.37935098
2.38745152
2.40569984
2.43224524
2.46443684
2.50221807
2.54717265
2.60185402
2.6692794
2.75344311
2.85539062
2.97556021
3.10970797
3.24953018
3.37174755
3.45411965
3.49026196
3.48213272
3.44763036
3.44610091
3.53432523
3.69478889
4.09069789
4.70133327
5.26712053
5.09125456
5.45548418
6.31303005
8.50266464
12.6082633
15.7972801
15.80083
12.5547448
7.8856282
5.0084311
3.80970768
3.21781652
2.8701139
2.64606161
2.48494658
2.35416834
2.24075681
2.14438066
2.06738083
2.01199323
1.97933456
1.96837576
1.9762237
1.99940251
2.03372179
2.07341001
2.11091491
2.13732022
2.14688891
2.15222832
2.16219712
2.1755116
2.19061769
2.20650582
2.22247461
2.23852294
2.25419842
2.26904868
2.28282197
2.29537058
2.30661934
2.31653852
2.32512841
2.33241129
2.338424
2.3432127
2.34682871
2.34932619
2.35076091
2.35119032
2.35067519
2.34927877
2.34706723
2.34410964
2.34047657
2.33624687
2.33148997
2.32625592
2.32057641
2.31446904
2.30795098
2.30105882
2.29386013
2.28643857
2.27885894
2.27114988
2.26331691
2.2553583
2.24728608
2.23913586
2.23095318
2.22276997
2.21459737
2.20643413
2.198281
2.19015597
2.18210031
2.17417455
2.16645727
2.15905241
2.15209549
2.14576059
2.14026866
2.13590074
2.13301845
2.13210418
2.13384122
2.13929225
2.14949128
2.16571612
2.18954551
2.22226225
2.25351852
2.26748723
2.27003581
2.27175487
2.27904062
2.2940577
2.31533655
2.34096966
2.37139855
2.40841108
2.4545748
2.51256147
2.5859356
2.67514511
2.77873416
2.89211177
3.00349102
3.09698246
3.15467642
3.17198666
3.15235364
3.11414663
3.11333634
3.20706441
3.36673637
3.7132029
4.23829454
4.73144412
4.59744207
4.92684025
5.66774415
7.53664368
11.2052552
14.5525858
15.1501442
12.8343469
8.65494187
5.41902242
3.94645868
3.2470959
2.84638905
2.59133834
2.41248196
2.27358713
2.15852844
2.06389216
1.98992879
1.93746715
1.90676505
1.8964573
1.90368731
1.92507747
1.95668264
1.99334296
2.02852451
2.05471421
2.06731718
2.07651529
2.08936614
2.10481543