/*--------------------------------*- C++ -*----------------------------------*\
| =========                 |                                                 |
| \\      /  F ield         | OpenFOAM: The Open Source CFD Toolbox           |
|  \\    /   O peration     | Version:  2506                                  |
|   \\  /    A nd           | Website:  www.openfoam.com                      |
|    \\/     M anipulation  |                                                 |
\*---------------------------------------------------------------------------*/
FoamFile
{
    version     2.0;
    format      ascii;
    arch        "LSB;label=32;scalar=64";
    class       volScalarField;
    location    "2644";
    object      p;
}
// * * * * * * * * * * * * * * * * * * * * * * * * * * * * * * * * * * * * * //

dimensions      [0 2 -2 0 0 0 0];

internalField   nonuniform List<scalar> 
15600
(
-7.04403549e-10
0.0155499001
0.0210485064
0.0436612304
0.0606038569
0.0708871379
0.0753827582
0.0795775398
0.0828485132
0.0857075237
0.08781216
0.0895185161
0.0909415474
0.0921825468
0.0933396156
0.094499196
0.0957817405
0.0971641218
0.0986508488
0.100207734
0.101779327
0.103255393
0.104619534
0.105875955
0.106987238
0.10794013
0.108794458
0.108966614
0.109431555
0.110637476
0.112297369
0.114468942
0.117085698
0.120123041
0.12354418
0.12732102
0.131423673
0.135823256
0.14049011
0.145395371
0.150510423
0.155807195
0.161257888
0.166835287
0.172513075
0.178266056
0.184070318
0.189903335
0.195744033
0.201572824
0.207371586
0.21312366
0.218813844
0.224428397
0.229955059
0.235383104
0.240703431
0.245908647
0.250993163
0.255953143
0.260786266
0.265491462
0.270068385
0.274517586
0.278840297
0.28303892
0.287116324
0.291075926
0.294921233
0.298655929
0.302283918
0.305809583
0.309237762
0.312573452
0.315821628
0.318986976
0.322074
0.325087067
0.328030756
0.330909794
0.33372952
0.336495827
0.339216077
0.341898495
0.344554413
0.347195533
0.349838925
0.35249308
0.355187975
0.357919377
0.36074466
0.363591754
0.366544867
0.369906071
0.373123912
0.376514669
0.37989349
0.383278049
0.386611855
0.389860099
0.392726733
0.394893385
0.395792359
0.394940514
0.391903853
0.387145252
0.380707429
0.372271387
0.361344099
0.34682573
0.326595967
0.295634894
0.251450646
0.191857667
0.111042519
0.0151197027
-0.0733963922
-0.0886617929
-0.0659324979
-0.021755856
1.26672962e-05
0.015560416
0.0210693846
0.0434918683
0.0603538681
0.0706869572
0.0752472768
0.0794553328
0.0827460839
0.0856260595
0.0877563057
0.0894800637
0.0909158824
0.0921653358
0.0933264458
0.0944844485
0.0957616018
0.0971385603
0.098620689
0.10017558
0.101749942
0.103233099
0.104604985
0.105868847
0.106986889
0.107945252
0.108806389
0.108986505
0.109460047
0.110667235
0.112327285
0.114499403
0.117116546
0.120154156
0.123575352
0.127352015
0.131454245
0.135853165
0.140519128
0.145423288
0.150537044
0.155832353
0.161281442
0.166857116
0.172533081
0.178284163
0.184086473
0.189917506
0.195756206
0.201583002
0.207379789
0.213129923
0.218818217
0.224430942
0.22995585
0.235382227
0.240700978
0.245904717
0.250987856
0.255946556
0.26077849
0.265482587
0.270058499
0.274506778
0.278828652
0.283026515
0.287103228
0.291062204
0.294906945
0.298641134
0.30226867
0.305793929
0.309221745
0.312557104
0.315804979
0.318970056
0.322056836
0.325069689
0.328013198
0.330892092
0.333711716
0.336477969
0.339198217
0.341880695
0.344536734
0.347178037
0.349821685
0.352476165
0.355171475
0.357903347
0.360729342
0.363577997
0.366535136
0.369909991
0.373145645
0.376555043
0.379949811
0.38334726
0.386688612
0.389932074
0.392774752
0.394892525
0.395716768
0.394771865
0.391649648
0.386818929
0.380302129
0.3717682
0.360706185
0.345981362
0.325406338
0.294000703
0.24937506
0.189362202
0.108444964
0.0132554329
-0.0735998509
-0.0882042317
-0.0656471302
-0.0216699776
3.59943135e-05
0.0155892808
0.0211137157
0.0433415765
0.0601113399
0.0704843536
0.0751051408
0.0793267581
0.0826372836
0.0855390584
0.0876962079
0.0894387419
0.0908884018
0.0921470839
0.0933127535
0.0944692302
0.0957405282
0.0971112059
0.0985876747
0.100139413
0.101715534
0.103205171
0.104584567
0.105855898
0.106980785
0.1079453
0.108814008
0.109001749
0.109486357
0.110695726
0.112356006
0.11452882
0.11714642
0.120184337
0.123605563
0.127381991
0.131483715
0.135881874
0.140546835
0.145449767
0.150562096
0.155855824
0.161303196
0.166877036
0.172551073
0.178300159
0.184100425
0.189929387
0.19576601
0.201590739
0.207385486
0.213133623
0.218819977
0.224430832
0.229953953
0.235378634
0.240695791
0.24589804
0.250979791
0.255937201
0.260767939
0.26547093
0.270045828
0.274493184
0.278814223
0.28301133
0.287087359
0.291045716
0.294889898
0.298623589
0.302250686
0.30577556
0.309203044
0.312538116
0.315785731
0.318950577
0.32203716
0.325049852
0.32799324
0.330872058
0.333691658
0.336457947
0.339178301
0.341860957
0.344517262
0.347158922
0.349803045
0.35245805
0.355154065
0.357886625
0.360713846
0.363563831
0.366524144
0.369914216
0.373167654
0.376596599
0.380007726
0.383418036
0.386766109
0.390003014
0.39281838
0.394882666
0.395626536
0.394583595
0.391371721
0.386464499
0.379862501
0.371222437
0.360014211
0.345066647
0.324131698
0.292282522
0.24724481
0.18690279
0.106104881
0.012028803
-0.072937078
-0.0872488132
-0.0652419943
-0.0215658052
9.00433306e-05
0.0156499917
0.0211918003
0.0432156988
0.0598902223
0.0703002715
0.0749718564
0.079203297
0.0825315487
0.085453767
0.0876369221
0.0893979206
0.0908612533
0.092129006
0.0932991443
0.0944540661
0.0957191836
0.0970828124
0.0985524558
0.100099493
0.101675351
0.103169441
0.10455468
0.10583213
0.106962699
0.107933195
0.108806984
0.109001465
0.109500808
0.110714057
0.112375858
0.114550152
0.117168765
0.120207306
0.123628698
0.127404903
0.13150605
0.135903326
0.140567113
0.145468606
0.150579305
0.155871257
0.161316701
0.166888491
0.172560385
0.178307262
0.184105277
0.18993197
0.195766325
0.201588808
0.207381351
0.213127342
0.218811627
0.224420506
0.229941759
0.235364695
0.240680235
0.245880997
0.250961387
0.255917552
0.260747151
0.265449107
0.270023079
0.274469619
0.278789945
0.282986433
0.287061926
0.291019822
0.294863616
0.298596995
0.302223887
0.30574865
0.309176067
0.312511105
0.315758723
0.318923608
0.322010273
0.325023096
0.327966673
0.330845745
0.333665678
0.336432388
0.339153271
0.341836571
0.344493657
0.347136268
0.349781542
0.352437749
0.355135195
0.357869133
0.360698375
0.363549213
0.366511577
0.369917006
0.373185539
0.37663187
0.380057161
0.383477783
0.386829655
0.390056823
0.392841634
0.394850016
0.395512823
0.394374212
0.391076444
0.386094621
0.37940763
0.370661089
0.359306162
0.34413831
0.322864148
0.290627986
0.245277597
0.184789316
0.104437611
0.0119313958
-0.0709298649
-0.0854895355
-0.0646014721
-0.0214318827
0.00028085397
0.0158197305
0.0213554258
0.0431226474
0.0596690474
0.0701265207
0.0748440801
0.079081271
0.0824254536
0.0853672111
0.087576393
0.0893561613
0.0908334752
0.0921104262
0.093285031
0.0944382101
0.0956963603
0.0970515778
0.0985124986
0.100052475
0.101625175
0.103120928
0.104509627
0.105791137
0.106925774
0.107901508
0.108777097
0.108981361
0.109502535
0.110721894
0.112387285
0.114564413
0.117184869
0.120224415
0.123645977
0.12742167
0.131521721
0.135917402
0.140579123
0.145478179
0.150586193
0.155875195
0.161317436
0.166885853
0.17255426
0.178297581
0.184092013
0.189915134
0.195745967
0.201565013
0.207354234
0.213097052
0.218778342
0.224384433
0.22990313
0.235323762
0.240637263
0.24583625
0.250915113
0.255869976
0.260698474
0.265399519
0.26997277
0.274418785
0.278738771
0.282935081
0.287010536
0.290968518
0.294812552
0.298546328
0.302173709
0.30569904
0.309127116
0.312462882
0.315711282
0.318876999
0.321964556
0.324978346
0.327922982
0.330803223
0.33362446
0.336392636
0.339115183
0.341800369
0.344459607
0.347104679
0.349752808
0.352412028
0.355112849
0.357850075
0.360683287
0.363536094
0.366499605
0.36991804
0.373195002
0.376653355
0.380087449
0.383512936
0.386862284
0.390071965
0.39281735
0.394761104
0.39533614
0.394099845
0.390718472
0.385663788
0.378891148
0.370035573
0.358529156
0.343135928
0.321530653
0.288950257
0.243373601
0.182904445
0.103303565
0.0128291321
-0.0675934563
-0.0827350148
-0.0634926491
-0.02112971
0.000814323887
0.0162689685
0.0217229836
0.0431136453
0.059435956
0.0699563142
0.0747195437
0.0789589601
0.082317209
0.0852777271
0.0875134111
0.0893126536
0.0908045785
0.0920910729
0.0932702443
0.0944214052
0.0956714651
0.0970164021
0.0984660286
0.0999957453
0.101561437
0.103055197
0.104444227
0.105727177
0.106864199
0.10784443
0.108719405
0.108941314
0.109493875
0.110722069
0.112394246
0.11457642
0.117199884
0.120240745
0.123662032
0.127436165
0.13153357
0.135925703
0.140583082
0.145477228
0.150579865
0.155863025
0.161299098
0.166861164
0.172523137
0.178260028
0.184048113
0.189865039
0.195689892
0.201503229
0.207287066
0.213024871
0.218701564
0.224303513
0.229818559
0.235236057
0.240546952
0.245743853
0.250821116
0.255774817
0.260602533
0.265303149
0.26987631
0.274322576
0.278643134
0.282840297
0.286916851
0.290876165
0.294721691
0.298457098
0.302086297
0.305613625
0.309043832
0.312381822
0.315632506
0.318800561
0.321890524
0.324906815
0.327854075
0.330737098
0.333561321
0.336332741
0.339058858
0.341747992
0.344411637
0.347061557
0.349715203
0.352380362
0.355087725
0.357831413
0.360671805
0.363530294
0.366495508
0.36992151
0.37319467
0.376654915
0.380087787
0.383508514
0.386844432
0.390023416
0.392714372
0.394578526
0.39505358
0.393713937
0.390250093
0.385124481
0.378265316
0.369296716
0.357630801
0.342000713
0.320060321
0.287160683
0.241419344
0.181094154
0.102483395
0.0144264355
-0.0632347577
-0.0790660372
-0.0617701155
-0.0204603074
0.00176511684
0.0171173839
0.0224415879
0.0432976065
0.0592035018
0.0697854411
0.0745977242
0.0788365004
0.0822067207
0.0851850189
0.0874477108
0.0892672685
0.0907745701
0.0920710555
0.0932549541
0.0944037818
0.0956444226
0.0969768515
0.0984121015
0.0999277031
0.101481815
0.102969342
0.104355216
0.10563693
0.106775098
0.107759636
0.108633183
0.108884731
0.109479449
0.110720205
0.112403433
0.114592871
0.117219712
0.120260864
0.123679776
0.127449473
0.131540809
0.135925612
0.140574676
0.145459825
0.150552906
0.155826137
0.161252122
0.166804116
0.172456168
0.178183404
0.183962194
0.189770266
0.195586776
0.201392342
0.20716903
0.212900355
0.218571276
0.224168198
0.229678991
0.235093028
0.24040126
0.24559627
0.250672359
0.255625525
0.260453261
0.265154388
0.269728526
0.274176232
0.278498666
0.282698096
0.286777241
0.290739382
0.294587951
0.298326644
0.301959369
0.305490439
0.308924548
0.312266536
0.315521274
0.31869342
0.321787534
0.324808072
0.327759723
0.33064733
0.333476404
0.336253027
0.33898481
0.34168016
0.344350705
0.347008087
0.349670174
0.352344593
0.355062178
0.357816193
0.360667806
0.36353792
0.366507493
0.369934246
0.373188385
0.376636866
0.380054858
0.383457585
0.386765331
0.389896403
0.392513907
0.394279609
0.394638876
0.393186976
0.389638873
0.384441804
0.377492656
0.368403563
0.35656533
0.340680104
0.318390357
0.285180846
0.239313634
0.179223829
0.101789926
0.0164517578
-0.0582083248
-0.0747411863
-0.0595410944
-0.0194236181
0.0028533325
0.0182171728
0.0235422756
0.0438075528
0.0590282618
0.0696111364
0.07447869
0.0787140942
0.0820940978
0.0850889935
0.0873791923
0.0892200514
0.0907436523
0.0920507067
0.0932395882
0.0943857705
0.0956155432
0.0969330157
0.0983505154
0.0998478447
0.10138561
0.102862671
0.104242121
0.105520336
0.106658967
0.10764819
0.108521418
0.108817436
0.109464721
0.110721501
0.112418616
0.114615039
0.117243109
0.120281238
0.123693821
0.12745484
0.131535811
0.135909085
0.140545812
0.145418126
0.150498108
0.155758232
0.161171301
0.166710726
0.172350677
0.178066379
0.183834281
0.189632178
0.195439274
0.20123623
0.207005149
0.212729575
0.218394494
0.223986332
0.229492979
0.234903819
0.240209794
0.245403455
0.250479037
0.255432441
0.260261052
0.264963616
0.269539711
0.273989887
0.278315286
0.282518116
0.286601012
0.2905672
0.29442009
0.29816336
0.301800914
0.305337042
0.308776382
0.312123708
0.315383836
0.318561404
0.321660994
0.324687106
0.327644491
0.330538055
0.333373404
0.33615673
0.338895787
0.341599101
0.344278471
0.346945349
0.349618145
0.352304445
0.355035242
0.357802886
0.360669354
0.363556988
0.366534392
0.369956521
0.373179035
0.376602635
0.379991887
0.383362487
0.386626408
0.389692055
0.392217154
0.393865397
0.394091988
0.392516133
0.388877141
0.383602773
0.376555138
0.367332732
0.355303308
0.339138263
0.316478478
0.282959775
0.236994464
0.177217232
0.101116116
0.0187186406
-0.0527795882
-0.0699638863
-0.0570182552
-0.018307463
0.00368186246
0.0192304867
0.0248529409
0.0447020741
0.0590221648
0.0694374472
0.0743641416
0.0785918992
0.0819794381
0.084989655
0.0873078869
0.0891712472
0.0907122962
0.0920306871
0.0932249434
0.094368206
0.0955856382
0.0968856832
0.0982821001
0.0997571997
0.101274279
0.102737219
0.104107637
0.10538076
0.106519679
0.107514586
0.108390574
0.108745382
0.109451588
0.110725001
0.112435691
0.114636291
0.117262178
0.120293647
0.123696408
0.127445528
0.13151326
0.135872436
0.140494548
0.145352031
0.150417259
0.15566291
0.161061941
0.166587876
0.172214983
0.177918562
0.183675125
0.189462511
0.195259962
0.201048168
0.20680926
0.212526802
0.218185798
0.223772694
0.229275391
0.234683281
0.239987299
0.245179961
0.250255436
0.255209525
0.260039501
0.264744018
0.269322604
0.273775807
0.278104749
0.282311587
0.286398887
0.290369822
0.294227744
0.297976309
0.301619417
0.305161347
0.308606688
0.311960143
0.315226473
0.318410289
0.321516191
0.32454873
0.32751272
0.330413139
0.3332557
0.336046715
0.338794097
0.341506502
0.344195916
0.34687357
0.349558421
0.352258103
0.355003787
0.357786896
0.360670173
0.363578547
0.366565846
0.369980454
0.373164248
0.376553415
0.379902631
0.38322873
0.386435239
0.389421097
0.391838455
0.393353181
0.3934316
0.391719089
0.387978902
0.382616924
0.375458499
0.366086805
0.353844721
0.33737395
0.314323762
0.28049513
0.2344558
0.17505821
0.100413503
0.0210986096
-0.0471499493
-0.0648574096
-0.054249032
-0.0173357535
0.00416263159
0.0199570768
0.0261252299
0.0458956046
0.0593145297
0.0692986644
0.0742595163
0.0784706282
0.0818630398
0.0848874252
0.0872342765
0.0891215666
0.0906814583
0.0920121478
0.0932123066
0.0943524501
0.0955562016
0.0968366046
0.0982090314
0.0996585976
0.101151519
0.102597563
0.103957164
0.105224326
0.106363814
0.107365896
0.108248251
0.108671074
0.109436333
0.1107248
0.112447744
0.114650089
0.117271753
0.12029471
0.123686107
0.127422046
0.13147549
0.135819637
0.140426316
0.145268336
0.150318323
0.155549117
0.160933798
0.16644599
0.172060043
0.177751323
0.183496394
0.18927314
0.195060834
0.200840198
0.206593382
0.212303975
0.217956998
0.223538914
0.229037641
0.234442576
0.239744651
0.244936351
0.250011782
0.254966653
0.259798121
0.264504747
0.269085997
0.273542413
0.277875101
0.28208619
0.286178181
0.290154181
0.294017476
0.297771692
0.301420727
0.304968854
0.308420624
0.311780672
0.315053702
0.318244292
0.321357054
0.324396584
0.327367769
0.330275656
0.333126067
0.33592544
0.338681846
0.341404071
0.344104281
0.346793488
0.349491118
0.35220489
0.35496615
0.35776537
0.360665921
0.363595432
0.366592821
0.369998786
0.373141006
0.37648976
0.379790581
0.383062341
0.386200978
0.389096825
0.3913953
0.392763562
0.392680013
0.390818136
0.386964622
0.381502253
0.374218959
0.364681348
0.35220586
0.33540607
0.311948014
0.277807742
0.231712433
0.172747022
0.0996540538
0.0235141016
-0.0414571793
-0.0595646181
-0.0511655876
-0.0163888276
0.00454198995
0.0204717613
0.0272262438
0.0472020517
0.0599688654
0.0692862943
0.0741782132
0.0783523865
0.0817453485
0.084783187
0.0871594511
0.0890723307
0.0906526904
0.091996798
0.0932034982
0.0943404355
0.095529419
0.0967883656
0.098134435
0.0995558803
0.101022008
0.102449091
0.103796593
0.105057226
0.106197468
0.107207767
0.108098641
0.108592566
0.109413674
0.110716524
0.112451752
0.114655176
0.11727233
0.120286464
0.123666272
0.127388847
0.131427814
0.135756735
0.140347782
0.145174229
0.150208889
0.155424754
0.160795015
0.166293387
0.171894298
0.177573178
0.183306643
0.189072618
0.194850412
0.200620776
0.206365889
0.212069361
0.217716234
0.223292992
0.228787567
0.234189367
0.239489321
0.24467989
0.249755127
0.254710655
0.25954352
0.264252186
0.268836051
0.27329564
0.277632053
0.28184741
0.285944148
0.289925306
0.293794099
0.297554116
0.301209243
0.304763755
0.308222175
0.311589079
0.314869114
0.318066813
0.321186798
0.324233703
0.327212486
0.330128266
0.332986966
0.33579515
0.338561045
0.341293556
0.344005014
0.346706235
0.349416992
0.352145093
0.354922059
0.357737378
0.36065489
0.363604361
0.36661102
0.370008132
0.373108001
0.37641265
0.379658876
0.382868644
0.385931834
0.388730825
0.390901957
0.392112219
0.391853576
0.389829739
0.385850086
0.380273332
0.37285009
0.363129584
0.350400652
0.333250541
0.309368757
0.27491359
0.228775014
0.17028442
0.0988251625
0.0259354836
-0.0357548322
-0.0542110286
-0.0477901766
-0.0152048292
0.00510285339
0.0209836758
0.0281882406
0.0484391233
0.0608925163
0.069534286
0.0741500817
0.0782427098
0.0816269683
0.0846778347
0.0870847208
0.0890251399
0.0906278515
0.0919866304
0.0932005615
0.0943342242
0.0955074681
0.0967433414
0.098060971
0.0994521253
0.100889299
0.102295624
0.103629732
0.104882993
0.106023503
0.107042049
0.10794202
0.108506952
0.109381096
0.110699524
0.112448301
0.114653234
0.11726644
0.120272093
0.12364061
0.127350077
0.131374704
0.135688507
0.140264062
0.145075096
0.150094582
0.155295653
0.160651607
0.166136241
0.171724059
0.177390548
0.183112378
0.188867515
0.194635306
0.200396537
0.206133415
0.211829576
0.217470086
0.22304145
0.228531618
0.233930012
0.23922756
0.244416706
0.249491458
0.254447368
0.259281377
0.263991857
0.26857812
0.273040675
0.277380619
0.281600082
0.28570144
0.289687676
0.293561925
0.297327719
0.300988928
0.304549835
0.308014951
0.3113888
0.314675973
0.317880954
0.32100836
0.324062858
0.32704948
0.329973406
0.332840662
0.335657928
0.338433576
0.341176621
0.343899536
0.346612984
0.349336924
0.352079258
0.354871691
0.357702663
0.360636395
0.363603848
0.366618438
0.370006887
0.373064518
0.376322698
0.379509648
0.382651584
0.385634214
0.388331728
0.390367843
0.391408293
0.390961344
0.388763234
0.384644734
0.37893923
0.371360388
0.361439526
0.348437051
0.330915901
0.306595276
0.271821896
0.225649876
0.167667614
0.097912328
0.0283423662
-0.030057967
-0.0488498307
-0.044233586
-0.0136760471
0.00595762069
0.0216523503
0.0291235202
0.0495029264
0.0618825213
0.070122488
0.074231084
0.0781547081
0.0815097709
0.0845719742
0.0870108747
0.0889810235
0.0906082475
0.0919830599
0.0932048397
0.0943349618
0.0954913584
0.0967025122
0.0979897208
0.099348644
0.100754946
0.102138765
0.10345799
0.104702645
0.105842345
0.106868586
0.107777827
0.108413146
0.109338747
0.110674839
0.112438813
0.114646071
0.117256207
0.120254013
0.123611835
0.127308742
0.131319471
0.135618562
0.140179104
0.144975185
0.149979931
0.155166607
0.160508605
0.165979801
0.171554763
0.177209035
0.182919335
0.188663679
0.194421451
0.200173475
0.205901993
0.211590668
0.217224598
0.222790308
0.228275771
0.233670424
0.238965201
0.244152533
0.249226397
0.254182286
0.259017052
0.263728976
0.268317275
0.272782439
0.277125559
0.281348799
0.285454489
0.289445557
0.293325053
0.297096438
0.30076355
0.304330689
0.307802375
0.311183088
0.314477369
0.317689644
0.320824512
0.323886664
0.326881204
0.329813372
0.332689284
0.335515731
0.338301216
0.341054849
0.343789219
0.346514874
0.349251812
0.352008
0.354815349
0.357661164
0.36061003
0.363592949
0.366613686
0.369993776
0.373009706
0.376219878
0.379344054
0.382413985
0.385313062
0.387905502
0.389798049
0.390655562
0.39000684
0.387622752
0.383353356
0.377504957
0.369754728
0.359615727
0.346319398
0.328406788
0.30363335
0.26853881
0.222336086
0.164872318
0.0968675402
0.0306960348
-0.0243848712
-0.0434914435
-0.0405839874
-0.0118667092
0.00706963276
0.0225222973
0.0301222579
0.0503841697
0.0628366284
0.0709170569
0.07451311
0.0781141731
0.0813991076
0.0844666863
0.0869380468
0.0889398372
0.0905937947
0.0919860312
0.0932161578
0.0943422764
0.0954806655
0.0966655691
0.0979206067
0.0992456271
0.100619349
0.101978959
0.103281705
0.104516345
0.105653979
0.106687414
0.107606448
0.108311681
0.109287659
0.110643546
0.112424358
0.114634947
0.117243123
0.120233999
0.123582039
0.127267242
0.131264882
0.135550039
0.140096396
0.144878313
0.149869059
0.155042018
0.160370664
0.16582894
0.171391473
0.17703386
0.182732872
0.18846657
0.194214386
0.199957187
0.205677254
0.211358286
0.216985412
0.222545187
0.228025609
0.233416132
0.238707701
0.243892742
0.248965214
0.253920566
0.258755579
0.263468448
0.268058294
0.272525571
0.276871366
0.281097908
0.28520749
0.289202996
0.293087378
0.296864012
0.300536691
0.30410974
0.307587709
0.310975049
0.314276255
0.317495683
0.320637904
0.323707622
0.326710014
0.329650369
0.332534889
0.335370459
0.338165698
0.3409298
0.343675428
0.346413054
0.349162594
0.351932033
0.354753462
0.357612991
0.360575595
0.363571048
0.366595728
0.369967682
0.372942645
0.376103795
0.379162698
0.382158111
0.384972362
0.387455871
0.389194121
0.389853865
0.388989864
0.386408985
0.381977556
0.375972619
0.368035349
0.357660329
0.344049916
0.325726294
0.300487109
0.265063763
0.218815938
0.161841844
0.0955855437
0.0329288567
-0.0187645223
-0.0381407488
-0.0368755939
-0.00987644054
0.00836214068
0.0235632367
0.0312122423
0.0511380509
0.0638006559
0.0716088866
0.0751019148
0.0781628806
0.0813053064
0.0843650349
0.0868667431
0.0889008431
0.0905832964
0.0919942316
0.0932332219
0.0943550105
0.0954745507
0.0966320666
0.0978535355
0.0991432334
0.100482811
0.101816553
0.103101218
0.104324451
0.105458876
0.106499324
0.107429065
0.10820364
0.109228835
0.110606439
0.11240569
0.114620823
0.117228409
0.120213583
0.123553102
0.127227785
0.13121351
0.13548591
0.14001925
0.144788109
0.149765884
0.154926062
0.160242185
0.165688253
0.171238948
0.176869916
0.182557985
0.188281269
0.194019253
0.199752856
0.205464406
0.211137643
0.216757734
0.222311271
0.22778628
0.233172236
0.2384601
0.243642299
0.248712788
0.253666991
0.258501636
0.263214846
0.267805635
0.272274414
0.276622258
0.280851497
0.284964401
0.288963817
0.292852594
0.296633999
0.300311767
0.303890259
0.30737408
0.310767666
0.314075474
0.317301781
0.320451111
0.323528169
0.326538207
0.329486558
0.332379497
0.335223992
0.338028754
0.340803045
0.343559569
0.346308732
0.349070286
0.351852172
0.354686605
0.357558439
0.360533116
0.363537862
0.366563925
0.369927778
0.372862553
0.375973981
0.378966037
0.381886126
0.384615421
0.386984536
0.38855477
0.389000379
0.387907958
0.385120504
0.380516782
0.374342165
0.366202446
0.355573665
0.34162956
0.322876096
0.297154333
0.261383175
0.215084035
0.158595627
0.0939805308
0.0349276974
-0.0132308457
-0.0328061809
-0.0331164046
-0.00776410318
0.00978067836
0.0247287233
0.0323787046
0.0518328529
0.0648385384
0.0720767333
0.0759263403
0.0783625064
0.0812437148
0.0842729002
0.0867991166
0.0888640975
0.0905757792
0.0920063879
0.0932549239
0.0943724764
0.0954728446
0.0966022716
0.0977890399
0.0990421073
0.100346005
0.10165221
0.102917208
0.104127735
0.105258014
0.106305579
0.107247109
0.108090126
0.109163151
0.110564188
0.112383475
0.114604588
0.117213223
0.120194249
0.123526864
0.127192539
0.131167864
0.135429064
0.139950875
0.144708074
0.149674166
0.154822723
0.160127342
0.165562074
0.171101649
0.176721769
0.18239932
0.188112481
0.193840798
0.199565253
0.205268231
0.21093352
0.216546336
0.222093309
0.227562501
0.232943413
0.238227025
0.24340577
0.248473615
0.253425977
0.258259551
0.262972409
0.267563447
0.272033019
0.276382184
0.280613411
0.284728957
0.288731645
0.292624211
0.296409793
0.30009205
0.303675391
0.307164505
0.310563833
0.313877796
0.317110582
0.320266653
0.323350699
0.326368053
0.329324086
0.332225128
0.335078218
0.337892137
0.340676195
0.343443098
0.346203189
0.34897599
0.351769336
0.354615484
0.357497974
0.360482826
0.363493406
0.36651803
0.369873564
0.37276888
0.37583007
0.378754682
0.381600398
0.384244929
0.386491338
0.387876606
0.388090779
0.386757617
0.383754869
0.378969316
0.372612245
0.364254998
0.353355067
0.339057783
0.319851626
0.293621411
0.257519901
0.211343782
0.155646608
0.0923738628
0.0365254987
-0.00781602627
-0.0274960329
-0.0293099055
-0.00555183444
0.0112986391
0.0259843701
0.0335976261
0.0525080692
0.0658678093
0.0725160373
0.0766456602
0.078812189
0.0812373746
0.0841986124
0.0867394007
0.0888313429
0.090571595
0.092022347
0.0932812249
0.09439503
0.0954763239
0.0965772541
0.0977283038
0.0989434129
0.100210024
0.101486957
0.102730703
0.103927317
0.105052686
0.106107631
0.107062015
0.107972187
0.109091472
0.110517486
0.112358416
0.114587177
0.117198764
0.12017751
0.123505172
0.127163698
0.131130466
0.135382367
0.139894428
0.144641624
0.149597546
0.154735829
0.160030118
0.165454508
0.17098378
0.176593691
0.182261202
0.187964565
0.193683403
0.199398773
0.205093125
0.210750309
0.216355592
0.221895654
0.227358597
0.232733952
0.238012721
0.243187353
0.248251835
0.253201594
0.258033322
0.262745067
0.267335587
0.271805167
0.276154843
0.280387262
0.284504685
0.288509915
0.292405569
0.296194637
0.299880676
0.303468162
0.3069619
0.310366354
0.313685919
0.316924679
0.320087012
0.323177581
0.326201807
0.329165091
0.33207381
0.334935048
0.337757633
0.340550906
0.343327529
0.346097783
0.348880895
0.351684544
0.354540933
0.357432217
0.360425141
0.363437949
0.366458126
0.369804861
0.372661347
0.375671923
0.378529659
0.381303677
0.383862875
0.385974393
0.387154831
0.387120196
0.385535274
0.382309603
0.377333237
0.37078113
0.362191123
0.351001921
0.336327274
0.316637927
0.289918721
0.25374247
0.20811904
0.153678692
0.0916496227
0.0376460892
-0.00254144121
-0.0222147365
-0.0254601549
-0.00324700176
0.0129048097
0.027310386
0.034851911
0.0531685452
0.0666169437
0.0731162971
0.0770899345
0.0796375943
0.0813291526
0.0841521473
0.0866936539
0.0888059972
0.0905725829
0.0920432283
0.093313151
0.0944238865
0.0954864413
0.096558639
0.0976729926
0.0988487481
0.100076355
0.101322177
0.102543055
0.103724598
0.104844399
0.105907015
0.106875194
0.107850882
0.109014751
0.110467146
0.112331343
0.114569638
0.117186336
0.120164979
0.123489945
0.12714353
0.131103922
0.135348717
0.139853072
0.144592145
0.149539594
0.154669103
0.159954352
0.165369481
0.170889323
0.176489708
0.182147682
0.187841588
0.193551139
0.199257483
0.204943147
0.210592049
0.216189524
0.221722304
0.227178538
0.232547791
0.237821093
0.242990909
0.24805126
0.252997597
0.257826646
0.262536454
0.267125634
0.27159438
0.275943692
0.280176441
0.284294904
0.288301872
0.292199838
0.295991618
0.299680647
0.303271479
0.306769079
0.310177952
0.313502474
0.316746608
0.319914628
0.323011156
0.326041709
0.329011716
0.331927579
0.334796415
0.337627065
0.340428884
0.343214444
0.345993953
0.348786279
0.351598915
0.354463899
0.357361932
0.360360648
0.363371982
0.366384593
0.369721796
0.372539963
0.375499752
0.378292664
0.380999143
0.383470315
0.385430209
0.38638384
0.386083959
0.384237999
0.38078269
0.37560648
0.368845971
0.360004998
0.348503605
0.333420676
0.313263583
0.286312938
0.250480594
0.205656162
0.152459388
0.0921348603
0.0388115398
0.00258975841
-0.0169623849
-0.0215711694
-0.000853556717
0.0145942212
0.0286962805
0.0361339204
0.0538102714
0.066965682
0.0738947831
0.0774650733
0.0807151435
0.0815918687
0.0841443958
0.0866695037
0.0887928392
0.0905817462
0.0920710816
0.0933524167
0.0944607481
0.0955050138
0.0965483831
0.0976251229
0.0987600891
0.0999468694
0.101159617
0.102355939
0.103521246
0.104634848
0.105705354
0.106688088
0.107727365
0.108934105
0.110414171
0.112303285
0.114553216
0.117177428
0.120158444
0.123483263
0.127134438
0.13109096
0.13533111
0.139830029
0.144563046
0.149503868
0.154626208
0.159903783
0.16531078
0.170822098
0.17641365
0.18206259
0.187747372
0.193447816
0.199145176
0.204822069
0.210462495
0.21605186
0.22157696
0.227025997
0.232388574
0.23765575
0.24282001
0.247875415
0.252817459
0.257642941
0.262349941
0.266936911
0.271403938
0.275751962
0.279984132
0.284102745
0.288110588
0.292010024
0.295803676
0.299494829
0.303088131
0.306588754
0.310001263
0.31333002
0.316578852
0.319751903
0.322853735
0.325889982
0.328866096
0.331788489
0.33466428
0.337502297
0.340311885
0.343105484
0.345893211
0.34869351
0.35151367
0.354385449
0.357288025
0.360290101
0.363296217
0.36629809
0.369624807
0.372405057
0.375314282
0.378046312
0.380690266
0.383067015
0.384853796
0.385557723
0.384978058
0.382863311
0.379171157
0.373783463
0.366797524
0.357681993
0.34584477
0.3303695
0.309968558
0.283172919
0.247751705
0.203524171
0.151368245
0.0931217729
0.0410329235
0.00759717102
-0.0117359885
-0.0176464496
0.00162508037
0.0163642827
0.0301364669
0.0374426514
0.0544388667
0.0671087872
0.0748006886
0.0779537711
0.0815670665
0.0821395051
0.0841898699
0.0866759214
0.0887979268
0.0906030225
0.0921086244
0.0934011652
0.094507584
0.0955340543
0.096548658
0.0975869911
0.0986797631
0.0998238346
0.101001417
0.102171387
0.103319219
0.104425942
0.105504407
0.106502248
0.107602959
0.1088509
0.110359843
0.112275557
0.114539432
0.117173797
0.12015996
0.123487452
0.127139039
0.1310945
0.135332703
0.139828647
0.144557818
0.149493958
0.154610803
0.159882106
0.165282114
0.170785807
0.176369204
0.182009594
0.18768556
0.193377051
0.199065441
0.204733454
0.210365177
0.2159461
0.221463092
0.226904412
0.232259708
0.237520067
0.24267799
0.247727588
0.252664416
0.257485393
0.262188667
0.266772523
0.271236912
0.27558269
0.279813332
0.283931161
0.287938965
0.291838977
0.295633604
0.299325953
0.30292079
0.306423535
0.309838837
0.313171046
0.316423834
0.319601188
0.322707595
0.32574883
0.328730364
0.331658597
0.334540625
0.337385225
0.340201715
0.343002354
0.345797149
0.348604045
0.351430128
0.354306761
0.357211541
0.360214421
0.363211573
0.366199553
0.369514647
0.372257317
0.375116978
0.377794329
0.380380456
0.382651025
0.384238799
0.384670547
0.383798596
0.381406498
0.37746705
0.371851305
0.364621019
0.355229206
0.343086017
0.327417602
0.307075131
0.280442123
0.245175239
0.201356899
0.150258122
0.094103479
0.0444403099