/*--------------------------------*- C++ -*----------------------------------*\
| =========                 |                                                 |
| \\      /  F ield         | OpenFOAM: The Open Source CFD Toolbox           |
|  \\    /   O peration     | Version:  2506                                  |
|   \\  /    A nd           | Website:  www.openfoam.com                      |
|    \\/     M anipulation  |                                                 |
\*---------------------------------------------------------------------------*/
FoamFile
{
    version     2.0;
    format      ascii;
    arch        "LSB;label=32;scalar=64";
    class       surfaceScalarField;
    location    "2644";
    object      phi;
}
// * * * * * * * * * * * * * * * * * * * * * * * * * * * * * * * * * * * * * //

dimensions      [0 3 -1 0 0 0 0];

oriented        oriented;

internalField   nonuniform List<scalar> 
30950
(
1.89205895e-05
-7.17232066e-07
1.77874707e-05
1.13311857e-06
5.18661921e-06
1.2600852e-05
-5.19156511e-06
1.03781842e-05
-8.62836147e-06
3.43679656e-06
-7.30680167e-06
-1.32155988e-06
-6.30012614e-06
-1.00667549e-06
-5.80735875e-06
-4.92767362e-07
-5.49196972e-06
-3.1538895e-07
-5.15521982e-06
-3.36749788e-07
-5.00180776e-06
-1.53411949e-07
-5.05013575e-06
4.83280917e-08
-5.30396976e-06
2.53834095e-07
-5.81551343e-06
5.11543714e-07
-6.59697189e-06
7.81458491e-07
-7.60412366e-06
1.00715175e-06
-8.67125463e-06
1.06713097e-06
-9.74948991e-06
1.07823521e-06
-1.07549775e-05
1.00548758e-06
-1.15840562e-05
8.29078685e-07
-1.21643566e-05
5.80300357e-07
-1.25995953e-05
4.35238708e-07
-1.29072285e-05
3.0763323e-07
-1.30237296e-05
1.16501091e-07
-1.30343438e-05
1.06141941e-08
-1.30578696e-05
2.35258648e-08
-1.33735077e-05
3.15637932e-07
-1.70345078e-05
3.66100014e-06
-2.24671375e-05
5.43262956e-06
-2.70344196e-05
4.56728223e-06
-3.09138549e-05
3.87943525e-06
-3.42143865e-05
3.30053174e-06
-3.70317734e-05
2.81738696e-06
-3.94282273e-05
2.39645405e-06
-4.14543152e-05
2.02608799e-06
-4.31405947e-05
1.68627955e-06
-4.45103485e-05
1.36975394e-06
-4.55820961e-05
1.07174765e-06
-4.63738501e-05
7.91754133e-07
-4.69015893e-05
5.277391e-07
-4.71805903e-05
2.79001225e-07
-4.722568e-05
4.50894549e-08
-4.70516978e-05
-1.73982197e-07
-4.66735237e-05
-3.78174489e-07
-4.6106115e-05
-5.67408805e-07
-4.53643466e-05
-7.41768801e-07
-4.44628506e-05
-9.01496377e-07
-4.34158996e-05
-1.04695121e-06
-4.22373251e-05
-1.17857501e-06
-4.09404676e-05
-1.29685754e-06
-3.95382566e-05
-1.40221153e-06
-3.8043305e-05
-1.49495131e-06
-3.64680293e-05
-1.57527624e-06
-3.48247996e-05
-1.64322929e-06
-3.31260945e-05
-1.69870567e-06
-3.13845841e-05
-1.74151023e-06
-2.96130263e-05
-1.77155798e-06
-2.78239316e-05
-1.78909492e-06
-2.60288371e-05
-1.79509438e-06
-2.4237582e-05
-1.79125547e-06
-2.24581065e-05
-1.77947549e-06
-2.06966929e-05
-1.76141414e-06
-1.89595899e-05
-1.73710319e-06
-1.72530399e-05
-1.70655055e-06
-1.55835218e-05
-1.66951851e-06
-1.39556436e-05
-1.62787864e-06
-1.23729247e-05
-1.58271957e-06
-1.0837604e-05
-1.53532086e-06
-9.35189768e-06
-1.48570704e-06
-7.91866823e-06
-1.43322948e-06
-6.54154425e-06
-1.3771247e-06
-5.22372738e-06
-1.31781683e-06
-3.96697242e-06
-1.25675571e-06
-2.77169467e-06
-1.1952778e-06
-1.63744423e-06
-1.13425107e-06
-5.64169846e-07
-1.07327444e-06
4.47062852e-07
-1.01123311e-06
1.39345765e-06
-9.463947e-07
2.27077227e-06
-8.77314972e-07
3.07230659e-06
-8.01534068e-07
3.78860253e-06
-7.16296357e-07
4.40599484e-06
-6.17391933e-07
4.90693612e-06
-5.00941636e-07
5.26707262e-06
-3.60135832e-07
5.45897519e-06
-1.91902893e-07
5.44847169e-06
1.05044147e-08
5.20594362e-06
2.42527546e-07
4.67449896e-06
5.31445205e-07
3.83380281e-06
8.40695627e-07
2.60007051e-06
1.23373198e-06
1.03557037e-06
1.56450009e-06
-1.27596949e-06
2.31153883e-06
-3.53770851e-06
2.26173968e-06
-3.69734789e-06
1.59638178e-07
-3.2545368e-06
-4.4280997e-07
-2.12940733e-06
-1.12513022e-06
-5.95564758e-07
-1.53384163e-06
1.25870807e-06
-1.85427297e-06
3.51234016e-06
-2.25363165e-06
6.4843697e-06
-2.97202947e-06
1.01745118e-05
-3.69014209e-06
1.46033006e-05
-4.42878883e-06
1.94525617e-05
-4.84926139e-06
2.42109226e-05
-4.75836106e-06
2.79534706e-05
-3.74254808e-06
3.08079036e-05
-2.85443315e-06
3.31448563e-05
-2.33695232e-06
3.52603871e-05
-2.11553084e-06
3.75874204e-05
-2.32703257e-06
4.09376789e-05
-3.3502583e-06
4.65094708e-05
-5.57179121e-06
5.37967292e-05
-7.28725836e-06
6.32121903e-05
-9.41546061e-06
7.6134153e-05
-1.2921963e-05
9.03695751e-05
-1.42354216e-05
9.59601026e-05
-5.59052853e-06
7.61953052e-05
1.97647979e-05
4.76740642e-05
2.8521239e-05
2.3817886e-05
2.3856179e-05
5.61514252e-06
6.57574234e-05
9.31482565e-07
5.97511427e-05
7.13939866e-06
2.50788969e-05
4.7273099e-05
-8.9198257e-06
4.43769064e-05
-2.30651807e-05
1.7582152e-05
-2.14123021e-05
-2.97443869e-06
-1.85784833e-05
-3.84049415e-06
-1.72333138e-05
-1.83793675e-06
-1.63532184e-05
-1.19548418e-06
-1.55315964e-05
-1.15837149e-06
-1.51693494e-05
-5.15658682e-07
-1.53969218e-05
2.75900762e-07
-1.62310215e-05
1.087934e-06
-1.78109254e-05
2.09144768e-06
-2.01628256e-05
3.13335878e-06
-2.31254011e-05
3.96972716e-06
-2.62878613e-05
4.22959113e-06
-2.94789736e-05
4.26934735e-06
-3.24812539e-05
4.00776786e-06
-3.50284846e-05
3.37630925e-06
-3.69784642e-05
2.53028004e-06
-3.85515928e-05
2.00836726e-06
-3.97877818e-05
1.54382231e-06
-4.05695681e-05
8.98287465e-07
-4.11116279e-05
5.52673937e-07
-4.18565277e-05
7.68425731e-07
-4.45254023e-05
2.98451222e-06
-5.52705991e-05
1.44061971e-05
-7.0022632e-05
2.01846621e-05
-8.25496626e-05
1.70943131e-05
-9.29695762e-05
1.42993487e-05
-0.000101735441
1.20663966e-05
-0.000109097321
1.01792675e-05
-0.000115259159
8.55829223e-06
-0.000120362661
7.12958976e-06
-0.00012450356
5.8271795e-06
-0.000127753213
4.61940734e-06
-0.000130170839
3.48937315e-06
-0.000131811136
2.43205182e-06
-0.000132722975
1.43957812e-06
-0.000132952647
5.0867366e-07
-0.000132545418
-3.62140417e-07
-0.000131545816
-1.17358441e-06
-0.000129997522
-1.92646942e-06
-0.000127943583
-2.62134781e-06
-0.000125426215
-3.25913761e-06
-0.000122486492
-3.84122106e-06
-0.000119164125
-4.36931896e-06
-0.000115497334
-4.84536672e-06
-0.000111522831
-5.27136104e-06
-0.000107276056
-5.64898731e-06
-0.000102791479
-5.97952711e-06
-9.8102937e-05
-6.26381999e-06
-9.3244041e-05
-6.50212437e-06
-8.82485563e-05
-6.69419162e-06
-8.31505591e-05
-6.83950722e-06
-7.79840944e-05
-6.93802305e-06
-7.27821829e-05
-6.99100685e-06
-6.75749878e-05
-7.00228941e-06
-6.23881109e-05
-6.97813338e-06
-5.72422064e-05
-6.92538e-06
-5.21541158e-05
-6.84950589e-06
-4.71404835e-05
-6.75073622e-06
-4.22181936e-05
-6.62884157e-06
-3.74040725e-05
-6.48364091e-06
-3.27105996e-05
-6.32135245e-06
-2.81471656e-05
-6.14615524e-06
-2.37202336e-05
-5.96225331e-06
-1.94361452e-05
-5.76979722e-06
-1.53030132e-05
-5.5663615e-06
-1.13307016e-05
-5.3494382e-06
-7.5278295e-06
-5.12068886e-06
-3.89932646e-06
-4.88526062e-06
-4.46559389e-07
-4.64804503e-06
2.83097873e-06
-4.41179071e-06
5.93271571e-06
-4.17501155e-06
8.85506412e-06
-3.9335825e-06
1.15898695e-05
-3.68119983e-06
1.41246241e-05
-3.41207041e-06
1.64402512e-05
-3.1171606e-06
1.85095588e-05
-2.7856049e-06
2.0294199e-05
-2.4020312e-06
2.17436051e-05
-1.95034854e-06
2.27900216e-05
-1.40655058e-06
2.33523546e-05
-7.54236701e-07
2.33334001e-05
2.94610704e-08
2.26308962e-05
9.45030138e-07
2.1101372e-05
2.06097052e-06
1.86318493e-05
3.31021712e-06
1.50402204e-05
4.82535996e-06
1.03015393e-05
6.30318122e-06
3.49538625e-06
9.1176892e-06
-2.69934321e-06
8.45647093e-06
-3.45545108e-06
9.15743134e-07
-1.98320861e-06
-1.91504966e-06
1.22198556e-06
-4.33032609e-06
5.57501438e-06
-5.88686822e-06
1.080046e-05
-7.07971889e-06
1.72003314e-05
-8.65350202e-06
2.54702235e-05
-1.12419214e-05
3.56217206e-05
-1.38416393e-05
4.75430796e-05
-1.6350148e-05
6.04240836e-05
-1.7730266e-05
7.29113069e-05
-1.72455847e-05
8.30025532e-05
-1.38337946e-05
9.08121114e-05
-1.06639916e-05
9.71787131e-05
-8.70355304e-06
0.000102913503
-7.85032114e-06
0.000109131782
-8.54530896e-06
0.000117928068
-1.21465442e-05
0.000132019886
-1.96636079e-05
0.000150909357
-2.61767286e-05
0.000175741616
-3.42477187e-05
0.000209225901
-4.64062492e-05
0.000247084456
-5.20939752e-05
0.000266069498
-2.45755736e-05
0.000227985244
5.78490538e-05
0.000157059084
9.94473939e-05
9.1022393e-05
8.98928722e-05
2.92313953e-05
0.00012474247
9.65201238e-06
0.000111538308
2.03435608e-05
5.56523983e-05
0.00010315901
-5.30684332e-06
0.000105336148
-3.48963189e-05
4.71716281e-05
-3.54034789e-05
-2.46727889e-06
-3.1157465e-05
-8.0865079e-06
-2.90418199e-05
-3.95358173e-06
-2.76597209e-05
-2.5775829e-06
-2.6456329e-05
-2.36176308e-06
-2.595053e-05
-1.02145733e-06
-2.64200546e-05
7.45425648e-07
-2.7907131e-05
2.57501061e-06
-3.06266992e-05
4.81101598e-06
-3.460665e-05
7.11330969e-06
-3.95547512e-05
8.91782826e-06
-4.48491445e-05
9.52398448e-06
-5.01859912e-05
9.60619381e-06
-5.52309703e-05
9.05274698e-06
-5.95953085e-05
7.74064725e-06
-6.31153821e-05
6.05035367e-06
-6.60983571e-05
4.99134221e-06
-6.86122502e-05
4.0577155e-06
-7.05345966e-05
2.82063403e-06
-7.22117232e-05
2.22980038e-06
-7.4618145e-05
3.17484769e-06
-8.09960731e-05
9.36243982e-06
-9.86954253e-05
3.21055495e-05
-0.000121422275
4.29115109e-05
-0.000140618765
3.62908036e-05
-0.000156322522
3.00031058e-05
-0.000169336365
2.50802401e-05
-0.000180077267
2.09201701e-05
-0.000188891998
1.7373023e-05
-0.000196011973
1.4249565e-05
-0.000201600371
1.14155782e-05
-0.000205780146
8.79918206e-06
-0.0002086548
6.36402799e-06
-0.000210317608
4.09485965e-06
-0.000210851528
1.97349803e-06
-0.000210334583
-8.27068255e-09
-0.000208843728
-1.85299613e-06
-0.000206454409
-3.56290383e-06
-0.000203238431
-5.1424482e-06
-0.000199265308
-6.59447093e-06
-0.000194602368
-7.92207945e-06
-0.000189314428
-9.12916198e-06
-0.000183463618
-1.02201297e-05
-0.00017710932
-1.11996661e-05
-0.000170308287
-1.20723933e-05
-0.000163115076
-1.28422002e-05
-0.000155582538
-1.35120642e-05
-0.00014776237
-1.40839894e-05
-0.000139705729
-1.4558765e-05
-0.000131463755
-1.4936166e-05
-0.00012308774
-1.52155224e-05
-0.00011462853
-1.5397234e-05
-0.000106134967
-1.54845701e-05
-9.76512807e-05
-1.54859755e-05
-8.92148132e-05
-1.5414602e-05
-8.08556929e-05
-1.52845004e-05
-7.25989547e-05
-1.51062455e-05
-6.44694132e-05
-1.48802785e-05
-5.64924402e-05
-1.46058158e-05
-4.86928283e-05
-1.42832544e-05
-4.10893817e-05
-1.39248e-05
-3.36963185e-05
-1.35392204e-05
-2.65239295e-05
-1.31346429e-05
-1.95823448e-05
-1.27113839e-05
-1.28843793e-05
-1.2264327e-05
-6.44517256e-06
-1.17886471e-05
-2.77712541e-07
-1.12881488e-05
5.61001814e-06
-1.07729935e-05
1.12151432e-05
-1.02531703e-05
1.65377779e-05
-9.73442712e-06
2.15761451e-05
-9.21337885e-06
2.63235194e-05
-8.68095797e-06
3.07663633e-05
-8.12404339e-06
3.48841349e-05
-7.52984298e-06
3.86461788e-05
-6.87920379e-06
4.20088092e-05
-6.14823644e-06
4.49111072e-05
-5.3043281e-06
4.7271946e-05
-4.31118821e-06
4.89840299e-05
-3.11863239e-06
4.99150331e-05
-1.68524087e-06
4.99041707e-05
4.03259695e-08
4.87718495e-05
2.07734983e-06
4.62950989e-05
4.53772221e-06
4.22489789e-05
7.35633581e-06
3.63545252e-05
1.07198123e-05
2.83997533e-05
1.42579533e-05
1.72701104e-05
2.02473288e-05
7.57438988e-06
1.81521938e-05
6.1371033e-06
2.35302623e-06
8.59562266e-06
-4.37356566e-06
1.36279884e-05
-9.36269377e-06
2.03944625e-05
-1.26533396e-05
2.85306877e-05
-1.52159444e-05
3.85910318e-05
-1.87138451e-05
5.15280973e-05
-2.41789867e-05
6.73392396e-05
-2.96527818e-05
8.56924352e-05
-3.47033438e-05
0.00010535398
-3.73918119e-05
0.000124313391
-3.62049953e-05
0.000139919049
-2.94394531e-05
0.000152176487
-2.29214303e-05
0.000162208114
-1.87351786e-05
0.000171253927
-1.68961336e-05
0.000181001811
-1.82931905e-05
0.000194573724
-2.57184568e-05
0.00021574481
-4.08346928e-05
0.000244348685
-5.47806032e-05
0.000281995076
-7.18941079e-05
0.000331799406
-9.62105804e-05
0.000388367846
-0.000108662414
0.000421335474
-5.75432055e-05
0.000379469297
9.97152325e-05
0.000281275418
0.000197641267
0.000179448057
0.000191720236
7.521645e-05
0.00019761886
2.98786835e-05
0.000174923873
4.30385474e-05
9.79429872e-05
0.000180139897
7.2310331e-06
0.000196048101
-4.30228908e-05
9.74255526e-05
-4.87476525e-05
3.25748258e-06
-4.38462629e-05
-1.29878973e-05
-4.10740529e-05
-6.7257916e-06
-3.93041268e-05
-4.34750868e-06
-3.78341321e-05
-3.83175735e-06
-3.72831179e-05
-1.57247114e-06
-3.80754892e-05
1.53779725e-06
-4.02977064e-05
4.79722805e-06
-4.4228356e-05
8.74166573e-06
-4.98805549e-05
1.27655087e-05
-5.68304433e-05
1.58677165e-05
-6.4264329e-05
1.69578702e-05
-7.17552458e-05
1.70971104e-05
-7.8871837e-05
1.61693381e-05
-8.5152406e-05
1.40212161e-05
-9.04466244e-05
1.13445721e-05
-9.51393729e-05
9.68409071e-06
-9.93338535e-05
8.2521962e-06
-0.000102935054
6.42183467e-06
-0.000106454072
5.74881801e-06
-0.000111539356
8.26013188e-06
-0.000122418022
2.02411055e-05
-0.000146391659
5.60791863e-05
-0.000175252993
7.17728448e-05
-0.000199235519
6.02733302e-05
-0.00021846227
4.92298565e-05
-0.000234034209
4.06521801e-05
-0.000246559545
3.34455054e-05
-0.000256519629
2.7333108e-05
-0.000264236498
2.19664338e-05
-0.000269942688
1.71217689e-05
-0.000273817542
1.26740365e-05
-0.000276012952
8.55943818e-06
-0.000276663421
4.74532869e-06
-0.000275886965
1.19704199e-06
-0.000273795891
-2.09934475e-06
-0.000270501724
-5.14716383e-06
-0.00026610901
-7.95561743e-06
-0.000260714509
-1.05369502e-05
-0.000254410598
-1.28983825e-05
-0.000247285289
-1.50473889e-05
-0.000239422101
-1.69923514e-05
-0.000230900102
-1.87421292e-05
-0.000221794093
-2.03056767e-05
-0.000212174971
-2.1691515e-05
-0.000202110395
-2.29067777e-05
-0.000191665488
-2.39569703e-05
-0.000180903575
-2.48459035e-05
-0.00016988696
-2.55753798e-05
-0.000158677544
-2.61455825e-05
-0.000147336977
-2.65560893e-05
-0.000135925895
-2.68083162e-05
-0.000124502022
-2.69084436e-05
-0.000113117181
-2.68708171e-05
-0.000101814841
-2.67169421e-05
-9.06299929e-05
-2.64693491e-05
-7.95920631e-05
-2.61441766e-05
-6.87304727e-05
-2.57418696e-05
-5.80756329e-05
-2.52606569e-05
-4.76570875e-05
-2.47018013e-05
-3.74976871e-05
-2.40842013e-05
-2.76149778e-05
-2.34219315e-05
-1.80221957e-05
-2.27274254e-05
-8.73244803e-06
-2.20011335e-05
2.38070062e-07
-2.12348452e-05
8.87006726e-06
-2.04206463e-05
1.71467397e-05
-1.95648213e-05
2.50579082e-05
-1.8684164e-05
3.25990659e-05
-1.77943282e-05
3.97686333e-05
-1.69039961e-05
4.65627619e-05
-1.60075076e-05
5.29713712e-05
-1.50895683e-05
5.89758944e-05
-1.41285661e-05
6.45486679e-05
-1.31026176e-05
6.96491763e-05
-1.19797114e-05
7.42199786e-05
-1.07190398e-05
7.81814811e-05
-9.26582946e-06
8.14272563e-05
-7.55696432e-06
8.38170418e-05
-5.50841573e-06
8.51743015e-05
-3.04250161e-06
8.52741052e-05
-5.94752094e-08
8.38623936e-05
3.48905982e-06
8.06405887e-05
7.75952813e-06
7.52712365e-05
1.27256867e-05
6.7352282e-05
1.86387653e-05
5.64463233e-05
2.51639123e-05
4.15226087e-05
3.517104e-05
2.89031176e-05
3.07716873e-05
2.67987664e-05
4.45737381e-06
3.00202465e-05
-7.59504219e-06
3.64769298e-05
-1.58193789e-05
4.50625927e-05
-2.1239e-05
5.54592469e-05
-2.56125986e-05
6.84483509e-05
-3.17029481e-05
8.51462142e-05
-4.08768498e-05
0.000105480216
-4.99867834e-05
0.000128863681
-5.8086809e-05
0.000153721324
-6.22494559e-05
0.000177655507
-6.01391792e-05
0.000197701945
-4.94858907e-05
0.000213741897
-3.89613825e-05
0.000226996512
-3.19897925e-05
0.000238981098
-2.88807201e-05
0.000251802896
-3.11149858e-05
0.000269283526
-4.31990858e-05
0.000295958406
-6.75095711e-05
0.000332069253
-9.08914502e-05
0.000379430581
-0.000119255434
0.00044104281
-0.000157822811
0.000511001916
-0.000178621519
0.00055747827
-0.000104019563
0.000522601905
0.000134591599
0.0004136813
0.000306561866
0.000286432913
0.000318968625
0.00014380383
0.000284437394
6.40106829e-05
0.000250257343
7.7218598e-05
0.000152832563
0.000277564678
3.03074048e-05
0.000318573259
-4.60779556e-05
0.000173810914
-6.08738862e-05
1.8053413e-05
-5.63830002e-05
-1.74787832e-05
-5.31472726e-05
-9.96151897e-06
-5.11422048e-05
-6.35257619e-06
-4.95568114e-05
-5.41715026e-06
-4.90878083e-05
-2.04147382e-06
-5.03026408e-05
2.7526301e-06
-5.33491368e-05
7.8437244e-06
-5.855636e-05
1.3948889e-05
-6.59051646e-05
2.01143134e-05
-7.48412753e-05
2.48038271e-05
-8.43823742e-05
2.64989691e-05
-9.39937622e-05
2.67084981e-05
-0.00010317391
2.53494863e-05
-0.000111438687
2.22859925e-05
-0.000118682045
1.85879303e-05
-0.000125355874
1.6357919e-05
-0.00013160393
1.45002531e-05
-0.000137389029
1.22069334e-05
-0.000143413816
1.17736045e-05
-0.000151902221
1.67485375e-05
-0.000167352322
3.56912061e-05
-0.000195981488
8.47083523e-05
-0.000228245492
0.000104036848
-0.00025429206
8.63198984e-05
-0.000274534788
6.94725845e-05
-0.000290354815
5.64722077e-05
-0.000302559775
4.56504657e-05
-0.000311758328
3.65316613e-05
-0.000318360345
2.8568451e-05
-0.000322666886
2.142831e-05
-0.00032491319
1.49203406e-05
-0.00032529731
8.94355874e-06
-0.000323990354
3.43837236e-06
-0.000321143924
-1.64938762e-06
-0.000316901249
-6.34201925e-06
-0.000311392518
-1.06558956e-05
-0.000304734139
-1.46139964e-05
-0.000297035946
-1.8235144e-05
-0.000288401251
-2.15330778e-05
-0.000278926993
-2.45216482e-05
-0.000268703982
-2.72153635e-05
-0.000257817313
-2.96287981e-05
-0.000246346851
-3.17761402e-05
-0.000234367844
-3.36705213e-05
-0.000221951778
-3.53228452e-05
-0.00020916721
-3.67415374e-05
-0.000196080612
-3.79325026e-05
-0.000182757212
-3.88987791e-05
-0.00016926165
-3.96411451e-05
-0.000155658115
-4.01596242e-05
-0.000142009551
-4.04568802e-05
-0.000128375673
-4.05423225e-05
-0.000114809907
-4.0436583e-05
-0.00010135693
-4.016992e-05
-8.80525387e-05
-3.97737405e-05
-7.49269501e-05
-3.92697662e-05
-6.2010504e-05
-3.86583163e-05
-4.93350562e-05
-3.79361055e-05
-3.69317375e-05
-3.71051212e-05
-2.48252839e-05
-3.61906555e-05
-1.30350276e-05
-3.52121892e-05
-1.57585216e-06
-3.41866012e-05
9.53719085e-06
-3.31141779e-05
2.02856984e-05
-3.19833527e-05
3.06486984e-05
-3.07836477e-05
4.06073431e-05
-2.9523466e-05
5.0149094e-05
-2.82259164e-05
5.92673609e-05
-2.69125952e-05
6.795852e-05
-2.55951564e-05
7.62165766e-05
-2.42655642e-05
8.40287933e-05
-2.29017857e-05
9.13732117e-05
-2.14729843e-05
9.82176526e-05
-1.99470593e-05
0.000104515753
-1.82778112e-05
0.000110202108
-1.64053956e-05
0.000115186501
-1.42502216e-05
0.000119347843
-1.1718307e-05
0.000122526738
-8.68730929e-06
0.000124519072
-5.03483583e-06
0.000125053461
-5.93862362e-07
0.00012381616
4.72635927e-06
0.000120447896
1.11277931e-05
0.000114509162
1.86644196e-05
0.000105473749
2.76741774e-05
9.26646622e-05
3.7972999e-05
7.52383431e-05
5.25973559e-05
6.06216568e-05
4.53883759e-05
5.7688689e-05
7.39033844e-06
6.11274869e-05
-1.1033837e-05
6.82896402e-05
-2.29815338e-05
7.7890556e-05
-3.08399136e-05
8.9709233e-05
-3.74312758e-05
0.000104677139
-4.66708534e-05
0.000123953316
-6.01530263e-05
0.000147378525
-7.34119927e-05
0.000174118269
-8.48265535e-05
0.000202391867
-9.05230547e-05
0.000229686468
-8.74337803e-05
0.00025305579
-7.28552123e-05
0.000272234004
-5.81395976e-05
0.000288369049
-4.81248356e-05
0.000303061027
-4.3572698e-05
0.000318617834
-4.66717901e-05
0.000339191032
-6.3772283e-05
0.000369728694
-9.80472311e-05
0.00041091923
-0.000132081987
0.000464549511
-0.000172885713
0.000533082719
-0.00022635602
0.000610624501
-0.000256163299
0.000668184879
-0.000161579945
0.000647976007
0.000154800472
0.000544207539
0.000410330328
0.000405647532
0.000457528635
0.000230881966
0.000381492561
0.000111381568
0.000335551668
0.00012315949
0.000219942986
0.000393173361
6.5220071e-05
0.000473296174
-4.24814551e-05
0.00028151244
-7.10362223e-05
4.66081798e-05
-6.84406476e-05
-2.00743576e-05
-6.50427773e-05
-1.33593891e-05
-6.30013586e-05
-8.39399443e-06
-6.1491169e-05
-6.92733938e-06
-6.12596097e-05
-2.27303262e-06
-6.30115105e-05
4.50453126e-06
-6.69701812e-05
1.18023955e-05
-7.35006535e-05
2.04793615e-05
-8.25339724e-05
2.91476324e-05
-9.33889705e-05
3.5658825e-05
-0.000104940173
3.80501713e-05
-0.000116563286
3.8331611e-05
-0.000127715046
3.65012463e-05
-0.000137930527
3.25014738e-05
-0.000147166199
2.78236025e-05
-0.000155921763
2.51134828e-05
-0.000164381007
2.29594974e-05
-0.000172589996
2.04159223e-05
-0.000181424597
2.06082053e-05
-0.000193370583
2.86945238e-05
-0.000212496936
5.48175582e-05
-0.000243198029
0.000115409445
-0.000275403668
0.000136242487
-0.000300345031
0.000111261261
-0.000318989893
8.8117447e-05
-0.000332949274
7.04315889e-05
-0.000343167251
5.58684423e-05
-0.000350320016
4.36844274e-05
-0.000354853609
3.31020441e-05
-0.000357093572
2.3668273e-05
-0.000357291817
1.51185858e-05
-0.000355658016
7.30975805e-06
-0.000352371236
1.51592402e-07
-0.00034759023
-6.43039408e-06
-0.000341454843
-1.24774057e-05
-0.000334085703
-1.80250366e-05
-0.000325596453
-2.31032462e-05
-0.000316095405
-2.77361929e-05
-0.000305684287
-3.19441957e-05
-0.000294458428
-3.57475074e-05
-0.000282507101
-3.91666917e-05
-0.000269914022
-4.22218776e-05
-0.000256757886
-4.4932277e-05
-0.000243113004
-4.73154025e-05
-0.000229050134
-4.93857159e-05
-0.000214637286
-5.11543847e-05
-0.000199940522
-5.26292673e-05
-0.000185024754
-5.38145472e-05
-0.000169954365
-5.47115348e-05
-0.00015479334
-5.53206489e-05
-0.000139604509
-5.56457116e-05
-0.000124447604
-5.56992281e-05
-0.000109376229
-5.5507957e-05
-9.44353327e-05
-5.51108173e-05
-7.96608289e-05
-5.45482443e-05
-6.50828826e-05
-5.38477132e-05
-5.07315667e-05
-5.30096327e-05
-3.66388045e-05
-5.20288684e-05
-2.28361543e-05
-5.09077722e-05
-9.34941752e-06
-4.96773927e-05
3.80090046e-06
-4.83625082e-05
1.65984304e-05
-4.69841313e-05
2.90271866e-05
-4.55429352e-05
4.10683361e-05
-4.40245022e-05
5.2700237e-05
-4.24155497e-05
6.39029426e-05
-4.07261716e-05
7.46624081e-05
-3.8985383e-05
8.49703962e-05
-3.72205834e-05
9.48216626e-05
-3.54464236e-05
0.000104208832
-3.36527332e-05
0.000113117881
-3.18108361e-05
0.000121525574
-2.98806765e-05
0.000129398228
-2.78197135e-05
0.000136687881
-2.55674639e-05
0.000143327138
-2.30446537e-05
0.000149223419
-2.01465017e-05
0.000154252291
-1.67471798e-05
0.000158250542
-1.26855594e-05
0.000161007287
-7.79158129e-06
0.000162243765
-1.83033872e-06
0.000161622705
5.3474186e-06
0.000158753821
1.39966779e-05
0.000153142776
2.42754636e-05
0.000144192342
3.662461e-05
0.000131069427
5.10959147e-05
0.000112976804
7.06899765e-05
9.73966608e-05
6.09685206e-05
9.32923521e-05
1.14946446e-05
9.61908322e-05
-1.39323147e-05
0.00010324672
-3.00374229e-05
0.000113114447
-4.07076387e-05
0.000125617685
-4.99345143e-05
0.000141726593
-6.27797606e-05
0.000162538707
-8.09651403e-05
0.00018780842
-9.86817056e-05
0.000216486458
-0.000113504591
0.000246698281
-0.000120734879
0.000275993144
-0.000116728644
0.000301667539
-9.8529607e-05
0.000323351398
-7.98234566e-05
0.00034205116
-6.6824596e-05
0.000359305865
-6.08274028e-05
0.000377404328
-6.47702518e-05
0.00040047545
-8.68434039e-05
0.000433519689
-0.000131091468
0.000477649191
-0.000176211489
0.00053449325
-0.000229729771
0.000605806611
-0.000297669381
0.000685981168
-0.000336337855
0.000750663161
-0.000226261941
0.000748067953
0.000157395682
0.000661573988
0.000496824286
0.000526659193
0.000592443433
0.000328677711
0.000482003281
0.00016854141
0.000426415805
0.000178746965
0.00029711348
0.000522475688
0.00011247449
0.000657935163
-3.05744193e-05
0.00042456135
-7.8236598e-05
9.42703582e-05
-7.95788108e-05
-1.87321446e-05
-7.64712515e-05
-1.6466948e-05
-7.46477082e-05
-1.02175373e-05
-7.34482104e-05
-8.12683655e-06
-7.36390696e-05
-2.08217297e-06
-7.60538304e-05
6.91929257e-06
-8.10007335e-05
1.6749299e-05
-8.88644208e-05
2.83430489e-05
-9.9509108e-05
3.97923198e-05
-0.000112132136
4.82818532e-05
-0.000125491183
5.14092178e-05
-0.00013888995
5.17303774e-05
-0.000151767542
4.93788388e-05
-0.000163704209
4.44381408e-05
-0.000174722496
3.88418889e-05
-0.000185345141
3.57361281e-05
-0.000195794554
3.34089106e-05
-0.000206218999
3.08403671e-05
-0.00021760057
3.19897763e-05
-0.000232312657
4.34066111e-05
-0.000253528725
7.60336257e-05
-0.000283591509
0.000145472229
-0.000312901315
0.000165552293
-0.000334695725
0.000133055672
-0.00035051963
0.000103941352
-0.0003619758
8.1887759e-05
-0.000369963768
6.38564105e-05
-0.000375102684
4.88233441e-05
-0.000377789982
3.57893414e-05
-0.000378315965
2.41942567e-05
-0.000376906295
1.37089162e-05
-0.000373751404
4.15486634e-06
-0.000369016887
-4.5829241e-06
-0.000362844148
-1.26031328e-05
-0.000355355257
-1.99662971e-05
-0.000346662899
-2.67173942e-05
-0.000336875665
-3.28904807e-05
-0.000326097608
-3.85142504e-05
-0.000314427046
-4.36147578e-05
-0.000301956637
-4.82179167e-05
-0.000288773605
-5.23497248e-05
-0.000274960149
-5.60353333e-05
-0.000260593897
-5.92985302e-05
-0.000245748454
-6.21608445e-05
-0.000230494153
-6.46400177e-05
-0.000214898777
-6.67497601e-05
-0.000199028288
-6.84997577e-05
-0.000182947556
-6.98952789e-05
-0.000166720954
-7.09381367e-05
-0.000150412498
-7.16291045e-05
-0.000134085165
-7.19730448e-05
-0.000117799048
-7.19853461e-05
-0.000101608373
-7.16986317e-05
-8.55588628e-05
-7.11603279e-05
-6.96870338e-05
-7.04200733e-05
-5.40232848e-05
-6.95114626e-05
-3.85975168e-05
-6.84354011e-05
-2.34416199e-05
-6.71847657e-05
-8.58750126e-06
-6.57618914e-05
5.93797328e-06
-6.42028676e-05
2.0112989e-05
-6.25375246e-05
3.39200263e-05
-6.07911688e-05
4.73425317e-05
-5.89654413e-05
6.03614438e-05
-5.70434143e-05
7.29549022e-05
-5.50090088e-05
8.51023595e-05
-5.28736289e-05
9.67887146e-05
-5.06717389e-05
0.000108004492
-4.84363607e-05
0.000118743236
-4.61851679e-05
0.00012899664
-4.39061381e-05
0.000138750023
-4.15642189e-05
0.000147979725
-3.91103782e-05
0.000156651795
-3.6491784e-05
0.000164718329
-3.3633998e-05
0.000172112297
-3.04386221e-05
0.000178742021
-2.67762253e-05
0.000184484516
-2.24896749e-05
0.000189179472
-1.73805147e-05
0.000192619608
-1.1231718e-05
0.00019453959
-3.75031971e-06
0.000194606634
5.28037468e-06
0.000192428323
1.61749888e-05
0.000187505202
2.91985843e-05
0.000179234609
4.48952016e-05
0.000166754462
6.35760628e-05
0.000149214973
8.8229463e-05
0.000133412328
7.67711669e-05
0.000128072084
1.68348867e-05
0.000130035144
-1.5895373e-05
0.000136567485
-3.6569764e-05
0.000146333727
-5.04738801e-05
0.000159159402
-6.27601888e-05
0.000175992264
-7.96126224e-05
0.000197815147
-0.000102788023
0.000224264737
-0.000125131296
0.000254088462
-0.000143328316
0.000285353826
-0.000152000243
0.000315731465
-0.000147106283
0.000342834939
-0.000125633081
0.000366288101
-0.000103276619
0.000386999801
-8.75362949e-05
0.000406417532
-8.0245134e-05
0.00042671436
-8.50670777e-05
0.000451805609
-0.000111934653
0.000486501573
-0.000165787431
0.000532251013
-0.000221960929
0.00059053561
-0.000288014368
0.000662472636
-0.000369606408
0.000742646281
-0.0004165115
0.000810390501
-0.000294006163
0.000822753974
0.00014503221
0.000758456863
0.000561121392
0.000638677548
0.00071222275
0.000428192135
0.000579400093
0.000230570069
0.00051793876
0.000240208296
0.000380959649
0.000659454801
0.000171479772
0.000867415039
-8.91001662e-06
0.000604951139
-8.12007754e-05
0.000166561117
-8.92025898e-05
-1.073033e-05
-8.70444677e-05
-1.86250698e-05
-8.57542561e-05
-1.15077485e-05
-8.51485727e-05
-8.73251929e-06
-8.5976815e-05
-1.25393012e-06
-8.91865521e-05
1.01290302e-05
-9.5173359e-05
2.27361062e-05
-0.000104322935
3.74926255e-05
-0.000116417856
5.18872405e-05
-0.000130543153
6.24071499e-05
-0.000145370134
6.62361988e-05
-0.000160151512
6.65117554e-05
-0.000174333519
6.35608456e-05
-0.000187561755
5.76663761e-05
-0.000199928726
5.12088601e-05
-0.000211966559
4.77739614e-05
-0.000223939528
4.53818797e-05
-0.000236095165
4.29960041e-05
-0.000249419644
4.53142552e-05
-0.00026589468
5.98816477e-05
-0.000287667175
9.78061193e-05
-0.000315379574
0.000173184629
-0.000340718785
0.000190891503
-0.000359103674
0.000151440562
-0.000372317155
0.000117154832
-0.000381693368
9.1263972e-05
-0.000387960574
7.01236169e-05
-0.000391618275
5.24810456e-05
-0.000392986489
3.71575556e-05
-0.000392305648
2.35134155e-05
-0.000389768433
1.11717018e-05
-0.000385543499
-7.00676678e-08
-0.000379776927
-1.03494967e-05
-0.000372593588
-1.97864713e-05
-0.00036410708
-2.84528052e-05
-0.000354426592
-3.63978822e-05
-0.000343658022
-4.36590509e-05
-0.000331903105
-5.02691677e-05
-0.00031925852
-5.62593433e-05
-0.000305815871
-6.16605655e-05
-0.000291661799
-6.65037969e-05
-0.000276878303
-7.08188301e-05
-0.000261543106
-7.46337273e-05
-0.000245730141
-7.79738093e-05
-0.000229510214
-8.08599449e-05
-0.000212951674
-8.33083005e-05
-0.000196121069
-8.53303632e-05
-0.000179083835
-8.69325125e-05
-0.000161904865
-8.81171064e-05
-0.000144648684
-8.88852855e-05
-0.000127378858
-8.92428712e-05
-0.000110156267
-8.92079375e-05
-9.30361806e-05
-8.88187176e-05
-7.60654947e-05
-8.81310142e-05
-5.92816875e-05
-8.72038805e-05
-4.27156562e-05
-8.60774943e-05
-2.639733e-05
-8.47537275e-05
-1.03586604e-05
-8.32234355e-05
5.36792201e-06
-8.14884743e-05
2.0754358e-05
-7.95893038e-05
3.57775964e-05
-7.75607635e-05
5.04190759e-05
-7.54326484e-05
6.4661651e-05
-7.32080168e-05
7.84860386e-05
-7.0867802e-05
9.18701848e-05
-6.83931555e-05
0.000104793064
-6.57965082e-05
0.000117238718
-6.31173937e-05
0.000129196624
-6.03942668e-05
0.00014065928
-5.76478242e-05
0.000151617553
-5.48644105e-05
0.000162056176
-5.20028424e-05
0.000171951156
-4.90053585e-05
0.000181268427
-4.58090551e-05
0.000189960313
-4.23258836e-05
0.000197960411
-3.84387201e-05
0.000205178304
-3.3994118e-05
0.000211493156
-2.88045277e-05
0.000216748584
-2.26359417e-05
0.000220743147
-1.52262818e-05
0.000223226839
-6.23401095e-06
0.000223880498
4.62671547e-06
0.00022232306
1.77324275e-05
0.00021807281
3.34488332e-05
0.000210552301
5.24157101e-05
0.00019894079
7.51875746e-05
0.000182356861
0.00010481339
0.000166745197
9.23828316e-05
0.000160427498
2.31525842e-05
0.000161466101
-1.69339742e-05
0.000167419269
-4.25229331e-05
0.000177014021
-6.00686308e-05
0.000190081809
-7.58279765e-05
0.000207535565
-9.70663778e-05
0.000230217734
-0.000125470193
0.000257598176
-0.000152511738
0.000288218202
-0.000173948343
0.000320094678
-0.000183876719