/*--------------------------------*- C++ -*----------------------------------*\
| =========                 |                                                 |
| \\      /  F ield         | OpenFOAM: The Open Source CFD Toolbox           |
|  \\    /   O peration     | Version:  2506                                  |
|   \\  /    A nd           | Website:  www.openfoam.com                      |
|    \\/     M anipulation  |                                                 |
\*---------------------------------------------------------------------------*/
FoamFile
{
    version     2.0;
    format      ascii;
    arch        "LSB;label=32;scalar=64";
    class       volSymmTensorField;
    location    "2644";
    object      Rij;
}
// * * * * * * * * * * * * * * * * * * * * * * * * * * * * * * * * * * * * * //

dimensions      [0 2 -2 0 0 0 0];

internalField   nonuniform List<symmTensor> 
15600
(
(1.14011166e-05 -2.92645174e-08 3.23569355e-28 1.14013289e-05 3.36326148e-30 1.14012469e-05)
(1.44521923e-05 -4.04981057e-08 -1.69500466e-26 1.44559765e-05 9.06421768e-27 1.44540277e-05)
(6.53740401e-06 -1.23883443e-08 4.04897684e-27 6.54276488e-06 8.15916668e-29 6.54011466e-06)
(3.73081711e-07 -3.70387488e-11 -1.35661986e-24 3.7307625e-07 -4.80959504e-24 3.73074886e-07)
(2.79290021e-06 1.70748881e-09 -1.93661173e-23 2.78861763e-06 -4.08643669e-23 2.79072805e-06)
(2.65943608e-06 1.20048707e-09 6.65581059e-26 2.65455955e-06 1.31468562e-25 2.65697539e-06)
(1.60967466e-06 3.95829707e-10 3.30792724e-26 1.60720787e-06 4.97772747e-26 1.60843433e-06)
(1.32867234e-06 2.17127477e-10 9.88139079e-25 1.32673975e-06 1.1475452e-26 1.32769974e-06)
(1.08382349e-06 1.32466442e-10 -2.43896436e-24 1.08233168e-06 -6.30829955e-24 1.08307333e-06)
(8.84140789e-07 9.68370732e-11 -3.9275349e-24 8.82982882e-07 -5.50322202e-24 8.83558606e-07)
(7.1475804e-07 8.22934624e-11 -7.14206018e-25 7.13866595e-07 2.46494331e-26 7.14310441e-07)
(6.3663291e-07 8.19130954e-11 -7.05065087e-30 6.35842419e-07 -8.76371945e-30 6.36236361e-07)
(6.13446198e-07 8.86527997e-11 3.48141435e-27 6.12661431e-07 -1.92026204e-28 6.13052883e-07)
(6.49673575e-07 1.07275098e-10 8.91585329e-26 6.4878025e-07 1.07660264e-25 6.49226182e-07)
(7.51040471e-07 1.44550128e-10 -8.58658359e-26 7.49886405e-07 -1.11152067e-25 7.50462706e-07)
(9.22130737e-07 2.09215468e-10 9.48950222e-28 9.20506967e-07 8.37313865e-29 9.21317854e-07)
(1.13351761e-06 3.04484723e-10 -5.08049569e-26 1.1312362e-06 -5.1249717e-26 1.13237502e-06)
(1.3485253e-06 4.43152724e-10 -5.9539693e-26 1.34547823e-06 -6.22710496e-26 1.34699885e-06)
(1.54986757e-06 6.42534595e-10 1.72711374e-25 1.54601753e-06 1.63944201e-25 1.54793838e-06)
(1.70111678e-06 9.01479705e-10 1.00548426e-25 1.69660787e-06 2.15190588e-25 1.69885729e-06)
(1.7705484e-06 1.1959672e-09 5.68533435e-26 1.76573095e-06 1.23727737e-25 1.76813456e-06)
(1.77708079e-06 1.51618042e-09 -2.61003449e-26 1.77231459e-06 -1.43772493e-25 1.77469408e-06)
(1.76374674e-06 1.85317372e-09 -2.56194043e-25 1.75926749e-06 -4.74821283e-25 1.76150548e-06)
(1.72497783e-06 2.14639421e-09 -1.82828205e-26 1.72104684e-06 2.72145498e-27 1.72301252e-06)
(1.66807796e-06 2.36608865e-09 -1.44585465e-25 1.66490496e-06 -4.73203092e-25 1.66649344e-06)
(1.63585284e-06 2.57218619e-09 3.02603605e-24 1.63350989e-06 4.13201167e-26 1.63468667e-06)
(1.56604095e-06 2.62035167e-09 2.54502862e-24 1.56465525e-06 -1.42522461e-23 1.56534925e-06)
(1.98734849e-06 3.91918169e-09 -2.28672345e-24 1.98657706e-06 -1.59922636e-23 1.98697424e-06)
(3.52098113e-06 9.1848347e-09 -6.65724194e-24 3.52047541e-06 5.40659684e-25 3.52075302e-06)
(5.51323801e-06 1.77690911e-08 3.35190523e-32 5.51256648e-06 -2.63706067e-33 5.51293095e-06)
(7.431111e-06 2.75513915e-08 1.65516593e-23 7.4303682e-06 -1.21815349e-24 7.43078414e-06)
(9.35891476e-06 3.86152014e-08 4.37684681e-23 9.35813567e-06 -9.36586817e-23 9.35857922e-06)
(1.11830139e-05 5.00559605e-08 4.02687428e-24 1.11822486e-05 -1.00243123e-22 1.11826973e-05)
(1.28961953e-05 6.15463314e-08 -2.97563011e-23 1.28954776e-05 2.01853633e-24 1.28959127e-05)
(1.44694139e-05 7.26437231e-08 -2.24709163e-29 1.44687735e-05 1.153256e-26 1.44691796e-05)
(1.58900377e-05 8.30378167e-08 -2.71998184e-29 1.58894994e-05 1.3411802e-26 1.58898624e-05)
(1.71417241e-05 9.24167556e-08 5.63511185e-28 1.7141308e-05 -1.44682542e-26 1.71416164e-05)
(1.82139897e-05 1.00539655e-07 -4.77272927e-23 1.82137101e-05 2.67057302e-24 1.82139546e-05)
(1.91002858e-05 1.07225933e-07 -1.1166707e-22 1.91001505e-05 2.10643302e-22 1.91003254e-05)
(1.97992417e-05 1.12366787e-07 -1.06316228e-23 1.97992529e-05 2.05517721e-22 1.9799355e-05)
(2.03124192e-05 1.15908078e-07 5.56506964e-23 2.0312574e-05 -2.81750377e-24 2.0312603e-05)
(2.06460453e-05 1.17860928e-07 -9.94435334e-28 2.06463367e-05 -2.8720032e-27 2.06462942e-05)
(2.08047104e-05 1.18261143e-07 -3.56095502e-28 2.08051276e-05 -8.10496312e-27 2.08050175e-05)
(2.07977038e-05 1.17199783e-07 3.26459286e-28 2.07982327e-05 1.93386831e-26 2.07980607e-05)
(2.06371808e-05 1.14807489e-07 -1.21342222e-27 2.06378055e-05 3.56537842e-27 2.06375786e-05)
(2.03369377e-05 1.11241138e-07 7.27430953e-23 2.0337641e-05 -2.60810708e-24 2.0337367e-05)
(1.9911848e-05 1.06674168e-07 1.35539473e-22 1.99126126e-05 -2.95532929e-22 1.99122998e-05)
(1.93773622e-05 1.01287901e-07 -1.06564167e-23 1.9378171e-05 -2.81616702e-22 1.93778276e-05)
(1.87490798e-05 9.52640892e-08 -6.9660943e-23 1.87499166e-05 2.11832493e-24 1.87495507e-05)
(1.80423863e-05 8.87787541e-08 -5.25284611e-28 1.80432364e-05 -4.1998187e-27 1.80428557e-05)
(1.72722036e-05 8.19977095e-08 -3.14857576e-28 1.72730534e-05 1.02306231e-26 1.7272665e-05)
(1.64528428e-05 7.50735515e-08 6.76249149e-23 1.64536807e-05 -1.3869609e-24 1.6453291e-05)
(1.55978889e-05 6.81434897e-08 1.03978543e-22 1.55987048e-05 -2.71548032e-22 1.55983194e-05)
(1.47201263e-05 6.13280259e-08 -2.62799649e-23 1.47209117e-05 -2.57322328e-22 1.47205355e-05)
(1.38315143e-05 5.47303887e-08 -5.85521526e-23 1.38322623e-05 8.96141135e-25 1.38318995e-05)
(1.29431718e-05 4.84363365e-08 -1.66407709e-28 1.29438772e-05 5.99324801e-29 1.29435311e-05)
(1.20653345e-05 4.25140415e-08 8.49011213e-29 1.20659933e-05 5.23108695e-29 1.20656667e-05)
(1.12072455e-05 3.70139303e-08 -1.00505058e-28 1.12078554e-05 -1.4594155e-27 1.120755e-05)
(1.03769129e-05 3.19683138e-08 -5.80092771e-29 1.03774729e-05 -5.98384965e-28 1.03771899e-05)
(9.58072866e-06 2.73912813e-08 1.08907339e-28 9.58123947e-06 -1.52725295e-28 9.58097907e-06)
(8.82325784e-06 2.32805281e-08 -9.9442209e-29 8.82372114e-06 4.90774255e-28 8.82348299e-06)
(8.10718991e-06 1.96204913e-08 5.3715906e-29 8.10760816e-06 -1.0957271e-27 8.10739143e-06)
(7.43387852e-06 1.63878921e-08 6.59245492e-29 7.43425441e-06 -1.13339678e-27 7.43405812e-06)
(6.8039758e-06 1.35557463e-08 -5.30790449e-29 6.80431212e-06 1.58306708e-27 6.80413515e-06)
(6.21781576e-06 1.10952265e-08 1.01129697e-28 6.21811536e-06 1.28335728e-30 6.21795655e-06)
(5.67523597e-06 8.97503522e-09 -8.4372588e-29 5.67550196e-06 9.60503988e-28 5.67535994e-06)
(5.17510581e-06 7.16145703e-09 -9.15328142e-29 5.17534136e-06 -8.79071568e-28 5.17521469e-06)
(4.71570777e-06 5.62078594e-09 7.67552394e-29 4.71591599e-06 1.36365675e-30 4.71580321e-06)
(4.29466256e-06 4.32035069e-09 0 4.29484629e-06 0 4.29474607e-06)
(3.9099284e-06 3.23071467e-09 0 3.91009016e-06 0 3.91000129e-06)
(3.55881397e-06 2.32478845e-09 0 3.55895601e-06 0 3.55887741e-06)
(3.23990248e-06 1.57882274e-09 -1.91951402e-23 3.24002692e-06 -5.88110632e-25 3.23995753e-06)
(2.95074234e-06 9.70086858e-10 -3.57991109e-23 2.95085121e-06 8.30394693e-23 2.95079002e-06)
(2.68937732e-06 4.78004438e-10 -7.86710946e-25 2.68947255e-06 1.58851657e-22 2.68941858e-06)
(2.45322317e-06 8.39596103e-11 2.92623071e-23 2.45330647e-06 7.57179964e-23 2.45325886e-06)
(2.23991976e-06 -2.28060359e-10 1.34778424e-23 2.23999262e-06 5.21559282e-25 2.2399506e-06)
(2.05209671e-06 -4.72644259e-10 -1.47372943e-28 2.0521605e-06 -1.55826305e-27 2.05212336e-06)
(2.10535722e-06 -7.39068151e-10 -4.20257835e-30 2.10541951e-06 -7.46062461e-28 2.10538287e-06)
(2.1675091e-06 -1.00474718e-09 -1.37793698e-23 2.16756976e-06 -6.68666904e-25 2.16753366e-06)
(2.22106321e-06 -1.25974584e-09 -1.33858304e-23 2.22112143e-06 6.52728719e-23 2.22108631e-06)
(2.26297266e-06 -1.49579612e-09 1.5226843e-23 2.26302741e-06 7.20673761e-23 2.26299382e-06)
(2.2893385e-06 -1.70222855e-09 1.45283586e-23 2.28938844e-06 7.73485621e-25 2.28935711e-06)
(2.29553178e-06 -1.86636074e-09 1.87755558e-28 2.2955753e-06 -1.85711343e-27 2.29554709e-06)
(2.27564326e-06 -1.97260703e-09 -1.19802553e-29 2.27567847e-06 -1.73055364e-27 2.27565443e-06)
(2.22361436e-06 -2.00555522e-09 1.30369146e-29 2.2236393e-06 3.50095408e-27 2.22362049e-06)
(2.1322067e-06 -1.9490575e-09 -5.2330173e-28 2.13221974e-06 8.70115727e-27 2.13220718e-06)
(2.00397748e-06 -1.80375651e-09 1.69573598e-29 2.0039776e-06 -1.15724742e-26 2.00397174e-06)
(1.82790879e-06 -1.55887916e-09 8.78200768e-28 1.82789557e-06 3.12909697e-27 1.82789707e-06)
(1.6083231e-06 -1.23916225e-09 -7.91889682e-28 1.60829801e-06 2.68392538e-27 1.6083058e-06)
(1.3409223e-06 -8.57779276e-10 7.44642803e-30 1.34088848e-06 -7.96311733e-27 1.34090189e-06)
(1.05549736e-06 -4.95870044e-10 3.45664043e-28 1.0554606e-06 7.18630386e-27 1.05547572e-06)
(7.45540444e-07 -1.73159486e-10 -1.23173036e-28 7.4549947e-07 -1.91060415e-27 7.45517831e-07)
(8.86580733e-07 1.0664216e-10 -1.51080911e-28 8.86550083e-07 -1.26662885e-29 8.86565337e-07)
(1.06892835e-06 2.73657888e-10 4.71195393e-26 1.06906084e-06 2.19562169e-27 1.06899373e-06)
(1.14059684e-06 2.22647289e-10 -1.09169608e-25 1.14080563e-06 4.9793012e-25 1.14070661e-06)
(1.18638554e-06 1.15964191e-10 2.63554746e-25 1.18656003e-06 -7.13397625e-25 1.18648042e-06)
(1.14485855e-06 -4.67158784e-11 -7.50880334e-25 1.14480212e-06 2.14169147e-24 1.14484056e-06)
(1.13943522e-06 -1.91550325e-10 -5.28270384e-25 1.13901208e-06 7.67019666e-25 1.13923514e-06)
(1.50069328e-06 -4.12899726e-10 5.03025247e-25 1.49947889e-06 -9.18186804e-25 1.50010212e-06)
(2.1236935e-06 -7.95310321e-10 -7.09048343e-25 2.12070994e-06 1.14788698e-24 2.12222105e-06)
(3.16689127e-06 -1.49418922e-09 -7.66203815e-25 3.16000604e-06 6.97866281e-25 3.16346821e-06)
(4.8719623e-06 -2.78304942e-09 1.8021313e-24 4.85679757e-06 -2.06678561e-24 4.86438419e-06)
(7.48917959e-06 -5.04859482e-09 -2.88316774e-24 7.45788815e-06 4.3156624e-24 7.47349173e-06)
(1.11592219e-05 -8.75347972e-09 3.78878929e-25 1.11001605e-05 2.81572912e-26 1.11295436e-05)
(1.53710599e-05 -1.36842376e-08 -3.48361923e-24 1.5274575e-05 5.1457933e-24 1.53225393e-05)
(1.95684702e-05 -1.87356334e-08 1.54660639e-24 1.94308429e-05 -2.92931044e-24 1.94992295e-05)
(2.39347742e-05 -2.35239748e-08 1.64095718e-24 2.37520871e-05 -3.29452879e-24 2.38428294e-05)
(2.88470346e-05 -2.81200399e-08 1.68487477e-24 2.86119233e-05 -3.61448057e-24 2.87286591e-05)
(3.49514456e-05 -3.29324213e-08 -8.13946777e-24 3.46488502e-05 6.66295592e-24 3.4799005e-05)
(4.3604245e-05 -3.90864733e-08 -3.08021297e-24 4.32008012e-05 4.30215632e-24 4.34008289e-05)
(5.86039208e-05 -5.28839847e-08 -1.10284895e-23 5.80072865e-05 1.79213862e-23 5.83026021e-05)
(8.32081043e-05 -9.09613636e-08 -8.52047588e-24 8.22488526e-05 1.04402954e-23 8.27230518e-05)
(0.000119084464 -1.86199375e-07 8.00822839e-24 0.000117516822 -1.21007647e-23 0.00011829118)
(0.000174366419 -4.39446599e-07 -2.04538758e-24 0.000171720037 5.21175188e-24 0.000173026005)
(0.000252411779 -1.08894423e-06 -1.6240889e-23 0.000248084252 2.80596128e-23 0.000250219296)
(0.000328341798 -2.3831293e-06 6.3594841e-25 0.000322668777 -2.77983055e-24 0.000325468245)
(0.000276265791 -2.61193823e-06 1.06451915e-23 0.000273046542 6.23934785e-25 0.000274642828)
(0.000130921683 -1.04728797e-06 -1.55278419e-25 0.00013034413 2.17037331e-27 0.000130631347)
(3.6024058e-05 -1.70155311e-07 2.04852007e-27 3.59966762e-05 -9.05356938e-26 3.60106664e-05)
(1.13530778e-05 -3.11924753e-08 1.36945405e-27 1.13521106e-05 -6.95213373e-30 1.13525578e-05)
(2.93737675e-05 -5.3352319e-07 9.30473668e-30 2.93792571e-05 -2.43808445e-29 2.93768954e-05)
(2.73055673e-05 -4.96390222e-07 -2.18120078e-25 2.73474711e-05 -2.25282616e-25 2.73256585e-05)
(1.65203091e-05 -2.22143478e-07 -6.8235857e-23 1.65945985e-05 -9.73310585e-25 1.65582636e-05)
(7.37579335e-06 -2.670746e-08 1.87518527e-22 7.38646433e-06 5.22282422e-22 7.38133904e-06)
(2.96096141e-06 6.2071321e-09 7.14545925e-23 2.94088915e-06 2.73956143e-22 2.95109063e-06)
(1.52071867e-06 3.44129821e-09 7.11715051e-24 1.50651592e-06 -3.27950394e-25 1.51366605e-06)
(1.2500535e-06 1.69360177e-09 -1.57794474e-25 1.23984172e-06 -2.21061882e-25 1.24498378e-06)
(1.07845214e-06 9.65563783e-10 -7.06973382e-24 1.07001275e-06 2.91621333e-25 1.07425486e-06)
(8.79596718e-07 5.99783111e-10 -5.64218513e-23 8.73020308e-07 -4.82481192e-23 8.76326663e-07)
(7.17969805e-07 4.48107216e-10 -4.0194788e-23 7.12813783e-07 -4.57176846e-23 7.15403071e-07)
(5.89090045e-07 3.90490643e-10 5.32450328e-24 5.85009633e-07 -1.813766e-25 5.8705752e-07)
(5.20694126e-07 3.82677281e-10 2.34194849e-29 5.1706953e-07 4.22178475e-29 5.18886934e-07)
(5.08152916e-07 4.16204414e-10 2.6208314e-26 5.04476149e-07 -1.41540243e-27 5.06318245e-07)
(5.48509117e-07 5.06970266e-10 -4.44056714e-25 5.4421708e-07 -5.31664595e-25 5.46366175e-07)
(6.44880857e-07 6.84863548e-10 -3.18105904e-25 6.3923216e-07 -2.62305684e-25 6.42059613e-07)
(8.01284157e-07 9.9080503e-10 4.70991253e-26 7.93274307e-07 -2.74342317e-27 7.97284695e-07)
(1.01629695e-06 1.48228053e-09 -3.57415401e-25 1.00475859e-06 -5.20121635e-25 1.01053673e-06)
(1.28469478e-06 2.29896458e-09 1.24228588e-24 1.26841266e-06 1.41967525e-24 1.27656921e-06)
(1.60969518e-06 3.65505535e-09 -8.62775147e-25 1.58738178e-06 -9.83171858e-25 1.5985625e-06)
(1.98559296e-06 5.81398655e-09 -6.98846646e-25 1.95631797e-06 -1.41819726e-24 1.97098961e-06)
(2.39903955e-06 9.05644688e-09 1.04956763e-24 2.36267974e-06 1.98656095e-24 2.38089712e-06)
(2.84296579e-06 1.37121352e-08 -3.94488065e-25 2.80023751e-06 1.28908882e-24 2.82163888e-06)
(3.324691e-06 1.99651491e-08 2.44415516e-24 3.27700388e-06 5.11006976e-24 3.30088031e-06)
(3.82693499e-06 2.75955034e-08 3.06984697e-25 3.77714494e-06 -4.199204e-26 3.80205851e-06)
(4.32052277e-06 3.61389511e-08 9.7864318e-25 4.27285563e-06 2.7529336e-24 4.29668726e-06)
(4.81599354e-06 4.54618628e-08 -7.86035771e-23 4.77516435e-06 -3.24841621e-24 4.79561256e-06)
(5.37760456e-06 5.63331145e-08 -1.91089138e-22 5.34684598e-06 -6.09359238e-22 5.36207379e-06)
(6.34679259e-06 7.86165812e-08 4.61602669e-23 6.32633796e-06 -7.55477039e-22 6.33653748e-06)
(8.56479135e-06 1.32027627e-07 1.39790731e-22 8.54839499e-06 -1.13541109e-23 8.55651627e-06)
(1.17774244e-05 2.14682686e-07 -1.24786236e-30 1.17592656e-05 9.81637588e-32 1.17680361e-05)
(1.52532818e-05 3.1181296e-07 -2.96026819e-22 1.52357149e-05 2.17826698e-23 1.52441789e-05)
(1.89088859e-05 4.21368665e-07 -6.03225868e-22 1.88927551e-05 -2.6034115e-21 1.89003527e-05)
(2.27048556e-05 5.39984152e-07 1.42766907e-22 2.26914112e-05 -3.29889911e-21 2.2697568e-05)
(2.66112701e-05 6.65484785e-07 5.18931843e-22 2.6601397e-05 -3.55547867e-23 2.66056458e-05)
(3.06016983e-05 7.9537423e-07 6.03901365e-26 3.05962657e-05 2.34011517e-27 3.05981858e-05)
(3.46492203e-05 9.27274914e-07 -1.29013973e-26 3.46490041e-05 8.325116e-27 3.46482087e-05)
(3.87218815e-05 1.0585632e-06 -4.21872174e-26 3.87275744e-05 -5.80387159e-27 3.87237301e-05)
(4.27867818e-05 1.18666637e-06 9.62165204e-22 4.27989327e-05 -5.37756747e-23 4.27917778e-05)
(4.68141015e-05 1.30918547e-06 1.82814181e-21 4.68330981e-05 7.61662167e-21 4.68224579e-05)
(5.07832926e-05 1.42413397e-06 -3.36657643e-22 5.08093743e-05 8.75788043e-21 5.07951482e-05)
(5.46761974e-05 1.52975006e-06 -1.25889955e-21 5.4709458e-05 6.36125467e-23 5.46916193e-05)
(5.84966822e-05 1.62515171e-06 -1.94484587e-26 5.85370785e-05 2.76710287e-26 5.85156706e-05)
(6.21596783e-05 1.70700949e-06 3.71007691e-26 6.22069739e-05 1.30039382e-25 6.2182141e-05)
(6.56379778e-05 1.77413724e-06 4.48369034e-26 6.56918053e-05 -1.42605769e-25 6.56637557e-05)
(6.89153232e-05 1.82588071e-06 -4.71124974e-26 6.89752049e-05 -4.52176405e-26 6.89442014e-05)
(7.19761286e-05 1.86181312e-06 -2.20752714e-21 7.20414957e-05 7.83800889e-23 7.20078447e-05)
(7.48080633e-05 1.88183418e-06 -3.5115345e-21 7.48782813e-05 -1.66839019e-20 7.48423203e-05)
(7.74016765e-05 1.8861353e-06 1.22512039e-21 7.74760689e-05 -1.80844771e-20 7.74381539e-05)
(7.97499629e-05 1.87516137e-06 2.51153815e-21 7.98278325e-05 -7.6685537e-23 7.97883269e-05)
(8.18478617e-05 1.84957153e-06 4.60906183e-26 8.19285076e-05 1.07961175e-25 8.18877738e-05)
(8.36917445e-05 1.81020367e-06 -5.38360929e-27 8.37744747e-05 -1.11755193e-25 8.37328674e-05)
(8.527916e-05 1.75804881e-06 -3.02859071e-21 8.53632996e-05 6.17147222e-23 8.53211616e-05)
(8.66086495e-05 1.69422863e-06 -4.17979109e-21 8.66935467e-05 -2.22621364e-20 8.6651206e-05)
(8.76796285e-05 1.61997667e-06 2.13209953e-21 8.77646567e-05 -2.33208588e-20 8.77224252e-05)
(8.84926806e-05 1.5366282e-06 3.22184814e-21 8.85772398e-05 -4.90228588e-23 8.85354131e-05)
(8.90503033e-05 1.4456128e-06 -1.01936376e-26 8.91338234e-05 2.38047785e-27 8.90926792e-05)
(8.93583053e-05 1.34844524e-06 -1.12694131e-26 8.94402549e-05 2.31019448e-27 8.94000487e-05)
(8.94274389e-05 1.24669962e-06 -8.36801908e-28 8.95073432e-05 -1.41244791e-25 8.94683007e-05)
(8.92746186e-05 1.14195373e-06 8.53756868e-27 8.93520861e-05 5.7613685e-26 8.93143899e-05)
(8.89217712e-05 1.03569405e-06 -6.82360268e-28 8.89965145e-05 -2.0074153e-26 8.89602949e-05)
(8.83921496e-05 9.29223112e-07 6.26839664e-28 8.84639863e-05 1.02902802e-27 8.84293213e-05)
(8.77052968e-05 8.23607925e-07 -1.57837032e-26 8.77741215e-05 3.87259626e-26 8.774105e-05)
(8.68730548e-05 7.19720973e-07 1.28470173e-26 8.69387885e-05 -1.55255342e-25 8.69073373e-05)
(8.59035271e-05 6.18342656e-07 1.41811946e-26 8.59660997e-05 2.50728063e-27 8.59362895e-05)
(8.48067976e-05 5.20214375e-07 -1.19192252e-26 8.48661591e-05 1.11938231e-25 8.48380034e-05)
(8.35999849e-05 4.25994271e-07 1.60321851e-28 8.36561474e-05 -8.10775245e-26 8.36296272e-05)
(8.2298612e-05 3.36168246e-07 -4.91191863e-28 8.23516367e-05 3.0981301e-25 8.23267113e-05)
(8.09166656e-05 2.51085635e-07 2.73933744e-28 8.0966648e-05 -2.27403136e-25 8.09432595e-05)
(7.94594421e-05 1.7097296e-07 -1.92635246e-28 7.95064773e-05 2.30577418e-25 7.94845687e-05)
(7.79384526e-05 9.60418604e-08 -1.34999915e-30 7.79826134e-05 2.8209382e-27 7.79621387e-05)
(7.63434047e-05 2.6469653e-08 -4.86342264e-26 7.63847362e-05 2.30882754e-25 7.63656624e-05)
(7.46969617e-05 -3.75719921e-08 3.98058175e-21 7.47355275e-05 1.20754008e-22 7.47178138e-05)
(7.30004951e-05 -9.60278782e-08 8.00003313e-21 7.3036383e-05 2.74242412e-20 7.30199806e-05)
(7.12746875e-05 -1.48961777e-07 2.44163298e-22 7.13080222e-05 5.351391e-20 7.12928653e-05)
(6.9523741e-05 -1.9650661e-07 -7.49672714e-21 6.9554656e-05 2.60241239e-20 6.95406747e-05)
(6.77511755e-05 -2.38813482e-07 -3.72452103e-21 6.77797836e-05 -1.42340765e-22 6.77669194e-05)
(6.59528935e-05 -2.7598634e-07 -1.30985366e-25 6.59792652e-05 7.01389212e-25 6.59674799e-05)
(6.41522055e-05 -3.08202749e-07 -4.2550463e-26 6.41763731e-05 1.08694937e-25 6.41656486e-05)
(6.23056024e-05 -3.35299956e-07 3.52812283e-21 6.2327537e-05 1.69971696e-22 6.23178842e-05)
(6.03960374e-05 -3.57126312e-07 3.4287569e-21 6.04156522e-05 2.42698929e-20 6.04071113e-05)
(5.84040972e-05 -3.73437304e-07 -3.37161702e-21 5.84212385e-05 2.31112666e-20 5.84138816e-05)
(5.63044843e-05 -3.83846415e-07 -3.24408929e-21 5.63189262e-05 -1.73517729e-22 5.63128629e-05)
(5.40677194e-05 -3.87873097e-07 -4.03514127e-26 5.40791622e-05 -4.73508569e-25 5.40745347e-05)
(5.16584256e-05 -3.84884494e-07 7.70997955e-26 5.16665057e-05 -5.09340204e-25 5.16634939e-05)
(4.9041466e-05 -3.74294408e-07 1.36950351e-25 4.904579e-05 9.25089009e-25 4.90445789e-05)
(4.61735544e-05 -3.55415192e-07 -1.37801758e-25 4.61737907e-05 -4.24516092e-25 4.61745537e-05)
(4.31820183e-05 -3.29245776e-07 -5.29458479e-26 4.31778803e-05 1.39726601e-24 4.31807273e-05)
(3.99343268e-05 -2.94742913e-07 5.45573078e-26 3.99256721e-05 -9.33297772e-25 3.99307253e-05)
(3.64094263e-05 -2.52980268e-07 -5.6311474e-26 3.6396279e-05 -8.73034859e-25 3.64034362e-05)
(3.25832782e-05 -2.04103664e-07 1.02159606e-25 3.2566185e-05 1.08949996e-24 3.2575325e-05)
(2.85012243e-05 -1.52363344e-07 -4.53642477e-27 2.84810052e-05 -2.49769387e-25 2.84914954e-05)
(2.39092208e-05 -9.65500995e-08 -7.00763638e-26 2.38848677e-05 -1.82912325e-26 2.38972959e-05)
(2.13204102e-05 -4.81630386e-08 3.92471846e-25 2.12943661e-05 -1.01763734e-23 2.13078721e-05)
(2.30144646e-05 -3.5123447e-08 1.10684353e-23 2.29930009e-05 -8.80434086e-23 2.30033879e-05)
(2.6090552e-05 -4.40596699e-08 4.28148919e-24 2.605771e-05 -6.61631868e-23 2.60739223e-05)
(2.95410515e-05 -5.98038044e-08 -8.49779926e-24 2.94787466e-05 1.00972517e-22 2.95089866e-05)
(3.27183964e-05 -8.09334017e-08 6.14039272e-23 3.26008693e-05 -1.31416155e-22 3.26584527e-05)
(3.57711162e-05 -1.01766916e-07 4.25000393e-23 3.55716256e-05 -1.41333456e-22 3.56698479e-05)
(3.94046426e-05 -1.23476823e-07 -7.48562043e-23 3.90897256e-05 1.36675094e-22 3.92455791e-05)
(4.42574752e-05 -1.51341265e-07 1.05606262e-22 4.37696567e-05 -1.34850037e-22 4.40119557e-05)
(4.98544881e-05 -1.86106122e-07 -9.97386161e-23 4.91193992e-05 1.43665884e-22 4.94859836e-05)
(5.55581032e-05 -2.26319241e-07 -9.64846003e-23 5.44949755e-05 1.39225712e-22 5.50267196e-05)
(6.02803164e-05 -2.66914744e-07 1.28697266e-22 5.88335909e-05 -1.93303792e-22 5.95590997e-05)
(6.30173402e-05 -3.02652887e-07 -1.59594464e-22 6.11883342e-05 1.83607804e-22 6.21070608e-05)
(6.27463204e-05 -3.24340076e-07 7.3148875e-23 6.06416716e-05 -1.19352364e-22 6.17002642e-05)
(6.08542423e-05 -3.2824898e-07 7.67957554e-23 5.85936643e-05 -1.05619498e-22 5.97310112e-05)
(5.86705261e-05 -3.19360684e-07 8.28046749e-23 5.63220823e-05 -9.00189528e-23 5.75039205e-05)
(5.69156135e-05 -3.04182793e-07 8.32383745e-23 5.44975804e-05 -7.58977135e-23 5.57149302e-05)
(5.6244423e-05 -2.88949834e-07 1.4156408e-22 5.37232588e-05 -1.68323701e-22 5.49932076e-05)
(5.79084442e-05 -2.82794639e-07 -4.59417104e-23 5.51608719e-05 5.59977851e-23 5.65460994e-05)
(6.37853544e-05 -3.10397938e-07 -2.18703891e-23 6.05126342e-05 -4.07664332e-23 6.21642935e-05)
(7.35015578e-05 -4.20469962e-07 2.84866674e-23 6.93214836e-05 -5.21740696e-23 7.14343299e-05)
(8.82988002e-05 -7.0056007e-07 -3.57202695e-23 8.26765498e-05 5.04043339e-23 8.55211954e-05)
(0.000111574907 -1.37926818e-06 -3.84507211e-23 0.000103576967 -5.08760943e-23 0.000107625321)
(0.000140641063 -2.87319128e-06 -3.62487347e-23 0.000129529729 -1.32037031e-22 0.00013515659)
(0.000153442544 -5.15441553e-06 9.85970934e-23 0.000141307852 6.2046437e-23 0.00014744456)
(0.000119490643 -5.4898757e-06 -2.46926687e-23 0.000112638567 -2.82632776e-24 0.000116100128)
(7.2251681e-05 -3.22990054e-06 6.37592126e-25 7.03424748e-05 -9.54287651e-27 7.12935185e-05)
(3.97450242e-05 -1.26722517e-06 -1.61708036e-26 3.94690091e-05 1.3231908e-24 3.960536e-05)
(2.96376499e-05 -6.29353268e-07 -1.61179085e-30 2.95945795e-05 -1.9674266e-28 2.96138271e-05)
(0.000203790438 -1.30180999e-05 -1.59107572e-25 0.000204068484 -1.52272457e-27 0.000203923612)
(0.000185009397 -1.10742964e-05 7.81221431e-24 0.00018603628 -4.33320823e-25 0.000185492502)
(0.000114119128 -5.32166899e-06 1.42769588e-21 0.00011567204 1.15206657e-23 0.000114908234)
(5.40857856e-05 -1.06298956e-06 2.82680605e-21 5.45987105e-05 1.25637102e-20 5.43387435e-05)
(1.94296418e-05 3.31660354e-08 3.21403143e-21 1.91749051e-05 4.54693483e-21 1.93029006e-05)
(8.61065994e-06 4.89000422e-08 -1.30452259e-22 8.40906111e-06 -5.30962213e-25 8.50995888e-06)
(7.58858621e-06 2.976296e-08 4.06304024e-25 7.42353346e-06 2.9512022e-27 7.50634033e-06)
(6.65427625e-06 1.77126402e-08 -3.94313588e-24 6.51375429e-06 -5.57548382e-24 6.58408994e-06)
(5.44785915e-06 1.13935265e-08 1.16667482e-21 5.33652103e-06 1.39751141e-21 5.39228531e-06)
(4.45323357e-06 8.66847618e-09 1.08121852e-21 4.36475699e-06 1.28468536e-21 4.4090321e-06)
(3.66427086e-06 7.50231569e-09 -3.30884483e-24 3.59300687e-06 -4.48153595e-24 3.62867638e-06)
(3.22460726e-06 7.15919777e-09 3.76961545e-27 3.16088288e-06 4.22198927e-27 3.19276747e-06)
(3.14215939e-06 7.62374507e-09 -5.02201363e-25 3.0769816e-06 2.59318655e-26 3.10958572e-06)
(3.39281036e-06 9.10550824e-09 -5.0718403e-25 3.3162209e-06 2.61212558e-25 3.35452678e-06)
(3.99291279e-06 1.20964759e-08 1.77113078e-23 3.89191432e-06 2.28144151e-23 3.94241976e-06)
(4.96765115e-06 1.73247603e-08 -1.50562459e-26 4.82502268e-06 -2.03701916e-26 4.89635924e-06)
(6.33938518e-06 2.60410705e-08 2.1291536e-23 6.1342779e-06 2.85075471e-23 6.23685536e-06)
(8.10944083e-06 4.1007161e-08 2.37997556e-26 7.81867605e-06 1.29400822e-25 7.96411221e-06)
(1.03205088e-05 6.64799987e-08 -1.9799795e-23 9.91842249e-06 -2.83330677e-23 1.01195527e-05)
(1.29708319e-05 1.08240236e-07 2.62142076e-23 1.24354539e-05 3.98938866e-23 1.27032898e-05)
(1.59961746e-05 1.73075426e-07 -2.7268462e-23 1.53165344e-05 -5.66506971e-23 1.56564771e-05)
(1.93177404e-05 2.68697591e-07 2.02460149e-23 1.84985297e-05 -1.92510042e-24 1.89082806e-05)
(2.29355059e-05 4.00271171e-07 4.6708979e-23 2.19986167e-05 1.06658219e-22 2.24672389e-05)
(2.67227338e-05 5.66807706e-07 3.62801419e-23 2.57192315e-05 1.36442633e-22 2.6221059e-05)
(3.04464345e-05 7.61368236e-07 2.80822101e-23 2.94584581e-05 1.74173042e-22 2.99523493e-05)
(3.41272582e-05 9.81165319e-07 -3.03854202e-23 3.32507815e-05 -6.20290208e-24 3.36900153e-05)
(3.83187043e-05 1.25937333e-06 2.10291033e-21 3.7602468e-05 1.82969898e-20 3.79571995e-05)
(4.49469259e-05 1.72525871e-06 4.7861566e-22 4.44155498e-05 2.12298016e-20 4.46809995e-05)
(5.95397155e-05 2.68028276e-06 7.68720043e-26 5.90683292e-05 -6.2734165e-27 5.93035567e-05)
(8.09489894e-05 4.12515494e-06 -1.73741166e-26 8.04528064e-05 9.28103092e-25 8.0696509e-05)
(0.000104356333 5.79794513e-06 2.38488687e-26 0.000103907177 -1.17912053e-24 0.000104128601)
(0.000129031572 7.63079843e-06 -1.5537256e-21 0.000128654687 7.28070189e-20 0.000128838309)
(0.000154801518 9.57943604e-06 -1.94700454e-21 0.000154531305 8.78247831e-20 0.000154661206)
(0.000181457778 1.16037225e-05 -1.60912348e-25 0.000181318091 7.06420888e-24 0.000181381847)
(0.000208837783 1.36643536e-05 1.23247536e-25 0.000208851875 -5.31062568e-24 0.000208838168)
(0.000236759348 1.57221642e-05 1.20935108e-26 0.000236947478 -5.14932224e-25 0.000236846145)
(0.000265007921 1.77360441e-05 -1.42884909e-26 0.000265387735 6.04622009e-25 0.00026519013)
(0.000293356934 1.96660927e-05 -2.32443355e-25 0.000293941872 1.29659833e-26 0.000293641396)
(0.000321598411 2.14759796e-05 5.0044381e-21 0.000322397469 -2.12174953e-19 0.00032198983)
(0.000349587844 2.31365025e-05 5.53392911e-21 0.000350606044 -2.3631007e-19 0.000350088869)
(0.000377191105 2.46219758e-05 -5.12785864e-25 0.000378429212 -1.22006844e-25 0.000377802339)
(0.000404263134 2.59102738e-05 9.0051441e-25 0.000405717269 8.01023532e-25 0.000404982921)
(0.000430141816 2.69429034e-05 -4.37718759e-25 0.000431801521 3.23564308e-24 0.000430965164)
(0.000454844746 2.77263064e-05 -4.25771625e-25 0.000456697502 -7.15775961e-25 0.00045576559)
(0.000478242239 2.82537622e-05 -3.99594272e-25 0.000480272618 -1.2304376e-23 0.000479253043)
(0.000500218335 2.85227905e-05 7.16482665e-25 0.000502408571 1.39662598e-23 0.000501310363)
(0.000520678488 2.85357006e-05 -9.42466323e-21 0.000523009195 4.71920489e-19 0.000521842163)
(0.000539547186 2.8299005e-05 -9.65424894e-21 0.000541998022 5.0235485e-19 0.000540772418)
(0.000556765221 2.78228214e-05 -1.12590314e-25 0.000559315478 6.11643375e-24 0.000558041706)
(0.000572286515 2.71202889e-05 0 0.000574915601 0 0.000573603971)
(0.00058607495 2.6207052e-05 1.31111646e-26 0.000588762714 -7.87690292e-25 0.000587423287)
(0.00059810281 2.51008766e-05 -1.00360787e-20 0.000600829764 6.39218043e-19 0.000599472239)
(0.000608349662 2.3821315e-05 -1.93201159e-20 0.000611097117 1.31264925e-18 0.000609730768)
(0.000616801712 2.23894198e-05 -9.12552069e-21 0.000619551814 6.65894695e-19 0.000618185475)
(0.00062345387 2.08275573e-05 -2.64129881e-25 0.000626189613 1.23947774e-24 0.000624831673)
(0.000628314853 1.91592348e-05 -1.74235215e-25 0.000631020156 -3.350731e-24 0.000629678526)
(0.00063141657 1.74088639e-05 -2.36359914e-25 0.000634076545 -4.52621545e-26 0.000632758524)
(0.000632825209 1.56012676e-05 -1.49245175e-25 0.000635426713 2.18003633e-24 0.000634138723)
(0.000632649427 1.37607847e-05 2.28294512e-25 0.000635181856 -5.91299684e-25 0.000633929047)
(0.000631033039 1.19099675e-05 -4.29454093e-27 0.000633488927 5.90751186e-25 0.000632274879)
(0.000628130844 1.00684418e-05 3.79005596e-27 0.000630505817 -6.12604409e-25 0.000629332581)
(0.000624074586 8.25248678e-06 -2.56745199e-25 0.000626366406 6.09481868e-25 0.000625234954)
(0.000618946476 6.47587713e-06 -8.20315237e-26 0.000621153487 2.42864287e-24 0.000620064541)
(0.000612802728 4.75112694e-06 5.20874457e-25 0.000614923327 -2.49613067e-24 0.000613877557)
(0.000605713407 3.08994647e-06 6.22080087e-26 0.000607746477 8.75518411e-26 0.000606744371)
(0.000597794786 1.50226981e-06 2.78282359e-25 0.00059974092 4.86874234e-27 0.000598782067)
(0.000589154516 -4.40773931e-09 -4.55553763e-25 0.000591015644 4.33669152e-24 0.000590099015)
(0.000579890669 -1.42461658e-06 -8.95705254e-22 0.000581669587 -9.40928655e-19 0.000580793695)
(0.000570042474 -2.75423663e-06 -1.76208039e-21 0.000571741811 -9.41263991e-19 0.000570905229)
(0.00055969689 -3.98996335e-06 2.35714982e-26 0.000561318385 4.17552112e-24 0.000560520135)
(0.000548782686 -5.12769654e-06 -1.0839033e-24 0.000550326705 -8.25943393e-24 0.000549566607)
(0.000537462613 -6.16589309e-06 -4.59657906e-25 0.000538930063 1.80015225e-23 0.000538207675)
(0.000525743775 -7.10335037e-06 -4.33355696e-21 0.000527136346 -8.30013386e-19 0.000526450842)
(0.000513773167 -7.94212061e-06 -9.84235602e-21 0.000515093634 -1.6488832e-18 0.00051444366)