/*--------------------------------*- C++ -*----------------------------------*\
| =========                 |                                                 |
| \\      /  F ield         | OpenFOAM: The Open Source CFD Toolbox           |
|  \\    /   O peration     | Version:  2506                                  |
|   \\  /    A nd           | Website:  www.openfoam.com                      |
|    \\/     M anipulation  |                                                 |
\*---------------------------------------------------------------------------*/
FoamFile
{
    version     2.0;
    format      ascii;
    arch        "LSB;label=32;scalar=64";
    class       volScalarField;
    location    "2644";
    object      separationFactor;
}
// * * * * * * * * * * * * * * * * * * * * * * * * * * * * * * * * * * * * * //

dimensions      [0 0 0 0 0 0 0];

internalField   nonuniform List<scalar> 
15600
(
-9.9430715e-68
-0
-0
-0
-0
-0
-0
-0
-0
-0
-0
-0
-4.3421407e-69
-9.94331169e-68
-0
-0
-0
-0
-0
-0
-0
-0
-0
-4.34209908e-69
-0
-0
-0
-0
-0
-0
-4.34191128e-69
-0
-0
-0
-0
-4.34167771e-69
-4.34164744e-69
-0
-0
-0
-0
-0
-9.94205697e-68
-0
-9.94211074e-68
-0
-0
-0
-0
-0
-0
-0
-0
-4.34184914e-69
-0
-9.94277906e-68
-9.9428417e-68
-0
-0
-0
-0
-0
-4.3420644e-69
-0
-0
-0
-0
-0
-0
-0
-0
-0
-0
-0
-4.34214809e-69
-0
-4.3421472e-69
-0
-0
-0
-4.34214059e-69
-0
-4.34213673e-69
-4.34213517e-69
-0
-4.34213372e-69
-0
-0
-0
-0
-0
-0
-0
-0
-0
-0
-0
-4.34214703e-69
-0
-0
-0
-0
-0
-0
-0
-0
-0
-4.34184324e-69
-0
-0
-0
-0
-0
-0
-0
-4.33991162e-69
-0
-4.34095438e-69
-0
-0
-0
-0
-0
-0
-0
-0
-0
-0
-0
-0
-0
-0
-0
-0
-0
-0
-0
-0
-0
-0
-0
-0
-0
-4.34051354e-69
-0
-4.34030304e-69
-0
-0
-0
-0
-0
-4.3335864e-69
-0
-0
-0
-4.32981327e-69
-0
-0
-0
-0
-4.32867274e-69
-0
-0
-4.32957285e-69
-0
-0
-0
-0
-4.33263141e-69
-0
-0
-0
-0
-0
-0
-0
-0
-0
-0
-0
-0
-0
-0
-0
-0
-0
-9.94267029e-68
-0
-0
-4.34212082e-69
-0
-4.3421428e-69
-0
-0
-4.34200987e-69
-0
-0
-0
-0
-0
-0
-0
-0
-0
-0
-0
-0
-0
-4.34131603e-69
-4.34147115e-69
-4.34165401e-69
-0
-0
-9.94323023e-68
-0
-0
-0
-0
-4.34170231e-69
-0
-0
-0
-0
-0
-0
-0
-0
-0
-0
-0
-0
-0
-0
-0
-0
-0
-0
-4.30348094e-69
-0
-0
-0
-0
-4.30434069e-69
-0
-0
-0
-0
-0
-0
-4.34034777e-69
-4.34041525e-69
-0
-0
-0
-0
-4.33828049e-69
-0
-0
-4.33463235e-69
-0
-0
-4.33069056e-69
-0
-0
-0
-0
-4.32191753e-69
-0
-4.3068437e-69
-0
-0
-0
-0
-0
-0
-0
-0
-0
-0
-0
-0
-0
-0
-0
-0
-0
-0
-0
-4.29926426e-69
-0
-0
-0
-0
-0
-0
-0
-4.32904506e-69
-0
-0
-4.33598108e-69
-0
-0
-9.93892395e-68
-0
-0
-0
-0
-9.94301754e-68
-0
-0
-0
-0
-0
-0
-4.33697591e-69
-0
-4.33473627e-69
-4.33357812e-69
-0
-0
-0
-0
-9.91170846e-68
-0
-0
-0
-0
-0
-0
-0
-0
-0
-0
-0
-0
-0
-0
-0
-4.33380644e-69
-0
-0
-0
-0
-0
-0
-0
-0
-0
-0
-0
-0
-0
-0
-0
-9.47606215e-68
-0
-0
-0
-0
-0
-0
-0
-0
-0
-4.34075583e-69
-0
-0
-0
-9.92646821e-68
-0
-0
-0
-0
-0
-0
-0
-0
-0
-0
-0
-4.30041503e-69
-4.29427317e-69
-9.81816479e-68
-0
-4.27165485e-69
-0
-0
-0
-0
-0
-0
-0
-4.14947465e-69
-0
-0
-9.50447197e-68
-0
-0
-0
-4.18094496e-69
-0
-0
-9.64972274e-68
-0
-0
-0
-0
-0
-0
-0
-0
-4.3054414e-69
-0
-0
-4.32457579e-69
-9.91404632e-68
-0
-0
-4.33893911e-69
-0
-0
-4.34174813e-69
-0
-0
-0
-0
-0
-0
-0
-0
-0
-0
-0
-0
-0
-0
-0
-0
-0
-0
-0
-0
-0
-0
-0
-0
-0
-0
-0
-0
-0
-0
-4.29467373e-69
-4.29783933e-69
-0
-0
-0
-4.28776432e-69
-0
-0
-0
-0
-0
-0
-0
-0
-0
-0
-9.41128823e-68
-0
-0
-0
-0
-0
-0
-0
-0
-0
-0
-0
-0
-3.38310129e-69
-0
-0
-9.90015278e-68
-0
-0
-0
-0
-0
-0
-0
-0
-4.31232564e-69
-0
-0
-0
-4.27119459e-69
-0
-0
-0
-0
-0
-4.16516566e-69
-4.1380266e-69
-0
-0
-4.04368636e-69
-0
-0
-0
-4.03952728e-69
-0
-9.32733431e-68
-0
-4.11476387e-69
-0
-9.5210319e-68
-0
-9.61371466e-68
-0
-0
-9.73411715e-68
-0
-0
-0
-4.30142854e-69
-0
-0
-0
-0
-4.33445133e-69
-0
-0
-0
-4.34010479e-69
-4.33903317e-69
-0
-0
-0
-4.32613037e-69
-0
-0
-0
-0
-0
-0
-0
-0
-0
-4.24731185e-69
-4.23694623e-69
-0
-0
-4.20452613e-69
-0
-0
-0
-0
-0
-0
-0
-0
-0
-0
-0
-0
-0
-0
-0
-0
-0
-0
-0
-0
-0
-0
-4.13560094e-69
-0
-0
-0
-0
-0
-0
-0
-0
-0
-0
-0
-0
-0
-0
-0
-0
-0
-0
-0
-0
-2.89308601e-69
-0
-0
-2.47612093e-69
-0
-0
-0
-0
-0
-0
-0
-9.85407244e-68
-0
-0
-4.28681693e-69
-0
-0
-0
-0
-0
-0
-0
-0
-0
-0
-0
-3.93447242e-69
-0
-8.78667481e-68
-3.85564263e-69
-0
-0
-0
-0
-0
-9.52102927e-68
-0
-4.22053109e-69
-0
-0
-0
-4.29795006e-69
-0
-0
-0
-0
-0
-0
-0
-0
-0
-0
-0
-4.32844088e-69
-0
-0
-0
-0
-0
-0
-0
-0
-4.26844097e-69
-0
-0
-0
-0
-0
-4.20719316e-69
-0
-0
-0
-9.52318496e-68
-0
-9.46348631e-68
-0
-9.40164171e-68
-0
-0
-0
-0
-0
-9.21100819e-68
-0
-9.14805124e-68
-0
-0
-0
-3.94197809e-69
-0
-0
-0
-0
-0
-0
-0
-0
-0
-0
-3.90835391e-69
-0
-0
-0
-8.888391e-68
-0
-0
-0
-0
-0
-0
-0
-8.27400321e-68
-0
-0
-3.56201077e-69
-3.57043078e-69
-0
-3.6911053e-69
-0
-0
-2.36374419e-69
-0
-0
-0
-0
-0
-3.87703562e-69
-9.90874719e-68
-0
-0
-0
-9.79443704e-68
-0
-0
-0
-0
-0
-0
-0
-0
-0
-0
-3.98070788e-69
-0
-0
-0
-0
-3.72161853e-69
-0
-0
-0
-4.0763844e-69
-9.5164084e-68
-0
-4.25593585e-69
-0
-0
-0
-0
-9.93136191e-68
-9.93805576e-68
-0
-0
-0
-0
-0
-0
-0
-4.31011571e-69
-0
-0
-0
-0
-0
-0
-0
-4.24775373e-69
-4.2391893e-69
-0
-4.22163031e-69
-4.21261348e-69
-0
-0
-0
-0
-0
-0
-0
-9.46449653e-68
-4.12203016e-69
-0
-4.09931787e-69
-0
-0
-0
-0
-0
-0
-0
-0
-0
-3.97375172e-69
-0
-0
-0
-3.91894959e-69
-0
-0
-0
-8.82394434e-68
-0
-0
-0
-0
-0
-0
-0
-0
-0
-0
-0
-0
-0
-3.73385949e-69
-0
-0
-0
-0
-3.71981511e-69
-0
-3.6155571e-69
-0
-0
-0
-0
-0
-0
-0
-0
-0
-0
-0
-1.19910307e-69
-0
-0
-0
-0
-0
-0
-0
-9.78151568e-68
-0
-0
-0
-0
-0
-0
-0
-0
-0
-0
-0
-0
-0
-0
-0
-8.56868895e-68
-0
-3.77326041e-69
-0
-0
-0
-0
-0
-0
-0
-0
-9.9382208e-68
-0
-0
-4.3206289e-69
-0
-4.30241882e-69
-4.29260247e-69
-4.28255542e-69
-0
-0
-0
-0
-0
-0
-9.64713576e-68
-0
-0
-0
-0
-0
-0
-9.50372049e-68
-0
-0
-9.44586329e-68
-0
-0
-0
-9.36793842e-68
-0
-9.3275538e-68
-0
-0
-0
-0
-0
-0
-0
-9.15288525e-68
-9.12938928e-68
-0
-0
-3.95519494e-69
-3.94450977e-69
-3.93371849e-69
-0
-3.91159548e-69
-3.90003212e-69
-0
-0
-3.85976577e-69
-0
-0
-0
-0
-0
-8.42912056e-68
-0
-0
-0
-0
-0
-0
-0
-0
-0
-0
-8.36412149e-68
-0
-0
-0
-0
-0
-0
-0
-0
-0
-0
-0
-4.00293436e-69
-0
-4.20804702e-69
-0
-0
-1.64741486e-69
-0
-0
-0
-0
-0
-0
-0
-0
-9.79506607e-68
-0
-0
-9.54937835e-68
-0
-0
-0
-0
-0
-0
-0
-0
-0
-0
-0
-0
-0
-0
-0
-0
-0
-0
-0
-0
-0
-0
-0
-4.30104186e-69
-0
-4.27374986e-69
-0
-0
-0
-0
-0
-9.59990705e-68
-0
-0
-0
-0
-0
-9.44452322e-68
-0
-0
-0
-0
-0
-0
-0
-0
-4.04973047e-69
-0
-0
-0
-0
-0
-0
-9.16374831e-68
-0
-0
-0
-0
-0
-0
-9.04840863e-68
-0
-0
-0
-0
-8.95860831e-68
-0
-0
-0
-0
-0
-0
-0
-0
-3.82380185e-69
-0
-0
-0
-3.71047928e-69
-0
-0
-0
-3.42966424e-69
-0
-0
-0
-0
-0
-0
-0
-0
-0
-0
-0
-3.72332385e-69
-0
-0
-0
-0
-8.51872249e-68
-0
-0
-0
-0
-4.26505393e-69
-4.14526397e-69
-0
-0
-0
-0
-3.458992e-68
-0
-0
-0
-0
-4.3311943e-69
-0
-0
-0
-0
-0
-0
-0
-0
-0
-0
-0
-0
-4.03050266e-69
-0
-0
-0
-0
-0
-0
-0
-0
-0
-0
-0
-0
-0
-0
-4.23330712e-69
-4.21467866e-69
-0
-0
-0
-0
-0
-0
-0
-0
-0
-0
-0
-0
-0
-0
-0
-4.00122123e-69
-0
-3.98620413e-69
-3.9794329e-69
-0
-0
-0
-3.95612615e-69
-0
-0
-0
-0
-3.9313718e-69
-0
-0
-0
-0
-0
-0
-0
-0
-0
-0
-0
-0
-0
-0
-0
-0
-0
-0
-8.77090643e-68
-0
-0
-0
-8.66790186e-68
-8.61958525e-68
-0
-3.69042408e-69
-3.62579653e-69
-0
-0
-0
-0
-0
-0
-0
-0
-0
-3.3648108e-69
-0
-0
-0
-3.65988949e-69
-0
-0
-0
-8.33771699e-68
-0
-0
-0
-0
-0
-0
-0
-0
-3.75577394e-69
-0
-0
-0
-0
-0
-0
-0
-0
-9.93758811e-68
-0
-4.30558195e-69
-0
-0
-0
-9.38699062e-68
-0
-4.0865365e-69
-0
-0
-0
-0
-0
-4.13031902e-69
-0
-0
-0
-0
-0
-0
-0
-0
-4.27419755e-69
-0
-4.22354827e-69
-0
-0
-0
-0
-9.40564685e-68
-0
-0
-0
-0
-0
-3.99928276e-69
-3.98466543e-69
-0
-0
-0
-0
-0
-3.91656977e-69
-3.9082109e-69
-3.90061522e-69
-0
-3.88754152e-69
-0
-0
-0
-0
-0
-0
-3.85825588e-69
-0
-3.85239916e-69
-3.84962562e-69
-0
-0
-0
-0
-3.83640275e-69
-0
-0
-0
-0
-3.82270118e-69
-0
-0
-0
-3.81076145e-69
-0
-0
-0
-0
-8.68800329e-68
-8.67583863e-68
-0
-0
-0
-0
-0
-0
-0
-0
-0
-0
-0
-0
-0
-0
-0
-3.18433327e-69
-0
-0
-0
-0
-0
-0
-0
-0
-0
-0
-0
-8.2622703e-68
-0
-0
-0
-0
-9.75374264e-68
-4.01253392e-69
-0
-0
-5.73424562e-68
-0
-0
-0
-0
-0
-4.28564301e-69
-4.33502063e-69
-0
-0
-0
-4.2126758e-69
-0
-0
-0
-0
-4.23148438e-69
-0
-0
-0
-9.67201584e-68
-0
-0
-0
-4.22222624e-69
-0
-0
-0
-0
-0
-0
-0
-0
-0
-0
-0
-0
-0
-0
-0
-3.92785541e-69
-0
-0
-3.87808007e-69
-0
-3.85089492e-69
-0
-3.82823789e-69
-0
-0
-0
-3.79522882e-69
-0
-8.66557206e-68
-3.77980123e-69
-0
-0
-0
-0
-0
-0
-0
-0
-0
-0
-0
-0
-0
-3.76100052e-69
-0
-3.76027984e-69
-3.75990762e-69
-0
-0
-0
-0
-0
-0
-3.75621323e-69
-0
-0
-3.75406667e-69
-0
-3.74958413e-69
-0
-0
-0
-0
-0
-0
-0
-0
-0
-0
-7.29046568e-68
-0
-0
-0
-0
-0
-0
-7.19568179e-68
-0
-0
-0
-0
-0
-0
-0
-7.85351736e-68
-7.81243594e-68
-0
-0
-0
-0
-0
-0
-0
-0
-0
-0
-0
-0
-0
-0
-3.23801126e-69
-0
-0
-0
-0
-0
-0
-0
-0
-0
-0
-0
-0
-0
-0
-0
-0
-0
-0
-9.76701061e-68
-0
-0
-0
-0
-4.14256325e-69
-4.09978888e-69
-0
-0
-0
-0
-0
-0
-3.88534823e-69
-0
-0
-0
-0
-0
-0
-0
-0
-0
-3.71664891e-69
-3.70720444e-69
-0
-0
-0
-0
-8.41949729e-68
-0
-0
-0
-0
-3.66848276e-69
-3.66875446e-69
-0
-0
-0
-0
-0
-0
-0
-0
-0
-3.68310465e-69
-3.6850354e-69
-0
-3.68889976e-69
-0
-3.69257221e-69
-0
-0
-0
-3.7000122e-69
-0
-0
-0
-3.70596542e-69
-3.70546722e-69
-3.70273567e-69
-0
-3.68742059e-69
-0
-3.64223563e-69
-0
-0
-0
-0
-0
-0
-0
-0
-2.94352252e-69
-0
-0
-0
-0
-0
-0
-0
-0
-0
-0
-0
-0
-0
-0
-0
-3.0537935e-69
-3.26062435e-69
-0
-4.12972557e-69
-9.57876472e-68
-0
-0
-0
-0
-0
-0
-0
-0
-3.92367037e-69
-0
-9.77562663e-68
-0
-0
-0
-0
-4.30407416e-69
-0
-4.31180473e-69
-0
-0
-0
-0
-0
-0
-0
-4.28258696e-69
-0
-0
-0
-0
-4.12033805e-69
-0
-0
-0
-0
-0
-0
-3.83423931e-69
-0
-0
-0
-0
-0
-0
-0
-0
-0
-0
-3.6123418e-69
-0
-0
-0
-0
-0
-0
-0
-0
-0
-0
-0
-0
-0
-0
-0
-0
-0
-8.20215438e-68
-0
-8.21951506e-68
-0
-0
-0
-0
-0
-0
-3.61840677e-69
-0
-0
-3.63093969e-69
-0
-0
-3.64388143e-69
-0
-3.65190446e-69
-0
-3.65669601e-69
-0
-0
-0
-0
-0
-0
-0
-0
-0
-0
-0
-0
-0
-0
-0
-2.68006133e-69
-2.71814232e-69
-0
-0
-0
-0
-0
-0
-0
-0
-0
-0
-0
-2.51659882e-69
-0
-0
-0
-0
-0
-0
-0
-7.8084921e-68
-3.0971637e-69
-1.8941019e-69
-1.22969929e-05
-0
-0
-0
-0
-0
-9.75636328e-68
-0
-4.31363356e-69
-4.30713305e-69
-0
-0
-0
-0
-0
-0
-0
-0
-0
-0
-0
-0
-0
-4.19662722e-69
-0
-0
-0
-0
-0
-0
-0
-0
-0
-0
-0
-0
-3.61710005e-69
-3.5940194e-69
-0
-0
-0
-3.52067199e-69
-0
-0
-0
-0
-7.94204736e-68
-0
-0
-0
-0
-0
-0
-0
-0
-0
-0
-0
-0
-0
-7.97056897e-68
-7.98302289e-68
-0
-8.00974218e-68
-0
-0
-0
-0
-0
-0
-0
-3.54879039e-69
-3.55529183e-69
-0
-0
-0
-3.58189225e-69
-3.58840328e-69
-0
-0
-8.25208825e-68
-0
-0
-3.59526305e-69
-0
-0
-0
-0
-0
-0
-0
-2.93901864e-69
-0
-0
-2.64341947e-69
-0
-0
-0
-0
-6.36686967e-68
-0
-0
-6.90537298e-68
-0
-0
-0
-0
-0
-0
-0
-0
-2.56087153e-69
-0
-0
-0
-0
-0
-0
-7.56387626e-68
-2.25633226e-69
-0.000391451648
-0.141514896
-0
-0
-0
-0
-0
-9.67374805e-68
-0
-0
-0
-0
-0
-0
-0
-4.268664e-69
-0
-0
-4.28638035e-69
-0
-0
-0
-0
-4.14708124e-69
-0
-3.97433552e-69
-0
-8.79609899e-68
-8.67353853e-68
-0
-0
-0
-3.62148168e-69
-3.58805113e-69
-0
-8.079815e-68
-3.50187739e-69
-0
-0
-0
-7.82575823e-68
-0
-0
-0
-0
-0
-0
-7.65881144e-68
-0
-0
-0
-0
-0
-0
-0
-0
-0
-0
-0
-0
-7.7408781e-68
-0
-0
-7.79325611e-68
-7.81201065e-68
-0
-0
-0
-0
-0
-0
-0
-0
-0
-0
-0
-0
-0
-0
-0
-3.54644433e-69
-0
-0
-0
-3.52699204e-69
-3.49878115e-69
-0
-3.38011938e-69
-0
-0
-0
-0
-0
-0
-0
-0
-0
-0
-5.67693542e-68
-0
-0
-0
-0
-0
-0
-0
-2.29535673e-69
-0
-0
-0
-0
-0
-2.94181882e-69
-3.8435119e-69
-4.15199914e-69
-0
-0
-0
-0
-0
-1.07029735e-07
-0.382017647
-0.0794435836
-0
-0
-0
-0
-0
-0
-0
-0
-0
-0
-0
-0
-0
-4.22809981e-69
-0
-0
-0
-0
-0
-4.1681926e-69
-0
-3.98770446e-69
-0
-0
-0
-0
-0
-0
-0
-0
-0
-0
-0
-3.38483948e-69
-0
-0
-0
-0
-0
-7.48150712e-68
-0
-0
-0
-0
-0
-7.37948242e-68
-0
-0
-0
-0
-0
-0
-0
-0
-0
-0
-0
-0
-0
-0
-0
-0
-0
-7.64197364e-68
-0
-7.69074971e-68
-0
-7.74080427e-68
-0
-0
-0
-0
-0
-0
-0
-0
-0
-0
-3.4898525e-69
-0
-0
-0
-0
-3.3915956e-69
-0
-0
-3.05730992e-69
-0
-0
-2.63669932e-69
-0
-0
-0
-0
-0
-0
-0
-0
-5.88170071e-68
-0
-0
-0
-0
-0
-0
-0.0282531477
-0.383509828
-0.0716592458
-0
-0
-3.74179323e-69
-0
-0
-0
-0
-0
-0
-0
-0.464299389
-0.400172839
-0
-0
-0
-0
-0
-4.02062898e-69
-0
-0
-0
-0
-0
-4.07296833e-69
-0
-4.15439762e-69
-0
-0
-9.61560546e-68
-0
-0
-0
-0
-0
-0
-0
-0
-0
-0
-0
-0
-0
-0
-0
-0
-0
-0
-0
-0
-0
-0
-7.20401729e-68
-0
-7.15449644e-68
-0
-0
-0
-7.10779859e-68
-0
-0
-0
-0
-0
-0
-7.16003101e-68
-0
-0
-7.22218566e-68
-0
-0
-0
-0
-0
-0
-0
-0
-0
-0
-0
-0
-0
-0
-0
-0
-0
-0
-0
-0
-0
-0
-0
-0
-0
-0
-3.37696757e-69
-0
-0
-0
-2.99208484e-69
-2.83559362e-69
-0
-2.5270735e-69
-2.35393797e-69
-0
-0
-0
-0
-0
-0
-0
-0
-0
-0
-0
-0
-1.4057374e-69
-0.149523911
-0.755394744
-0.942853138
-0.754388099
-0
-0
-3.63952089e-69
-0
-0
-0
-3.78294289e-69
-0
-0
-0
-0.488127549
-0.499260396
-9.61075116e-70
-3.14247012e-69
-0
-0
-0
-0
-0
-0
-0
-0
-3.91392636e-69
-0
-0
-0
-0
-0
-0
-4.13039996e-69
-0
-0
-3.95971231e-69
-0
-0
-0
-0
-0
-3.43241584e-69
-3.37874213e-69
-0
-0
-0
-0
-0
-0
-0
-0
-0
-0
-0
-0
-0
-6.87784397e-68
-0
-0
-0
-0
-6.83592704e-68
-0
-0
-2.99384185e-69
-0
-0
-0
-0
-6.94952668e-68
-0
-0
-0
-0
-0
-0
-0
-0
-0
-0
-0
-0
-0
-0
-0
-0
-0
-0
-0
-0
-0
-0
-0
-7.6927116e-68
-0
-0
-0
-0
-0
-0
-0
-0
-2.75866321e-69
-0
-0
-0
-0
-4.32958472e-68
-0
-0
-0
-0
-0
-0
-0
-0
-0
-0
-0.20848979
-0.846255863
-1.02590217
-1.04951567
-0.981061956
-0.0483177489
-0
-0
-0
-0
-0
-3.80760935e-69
-0
-0
-0
-0.479829285
-0.524921744
-0.145815085
-0
-0
-0
-0
-3.7041809e-69
-0
-0
-0
-0
-3.77427754e-69
-3.82580605e-69
-0
-9.067744e-68
-0
-0
-0
-0
-0
-0
-0
-0
-0
-0
-0
-0
-3.32556836e-69
-0
-0
-0
-0
-0
-0
-6.92956576e-68
-0
-0
-0
-0
-0
-0
-6.62266118e-68
-0
-0
-2.87120152e-69
-0
-2.8671079e-69
-2.8677183e-69
-0
-0
-0
-0
-0
-0
-0
-0
-0
-0
-0
-0
-0
-0
-3.02096384e-69
-6.95392701e-68
-6.99021938e-68
-0
-0
-0
-0
-0
-0
-0
-7.30098342e-68
-0
-0
-0
-0
-0
-0
-0
-0
-0
-0
-0
-0
-3.10400769e-69
-2.99376136e-69
-0
-2.67780079e-69
-2.49634342e-69
-0
-0
-0
-0
-3.92292077e-68
-0
-0
-0
-0
-0
-0
-0
-0
-0.199365798
-0.862552208
-1.04436615
-1.0719086
-1.06769852
-1.0262893
-0.503275709
-0
-0
-0
-0
-3.93944786e-69
-0
-0
-0
-0
-0.425245017
-0.535206905
-0.44760191
-0
-0
-0
-0
-0
-0
-0
-0
-0
-0
-0
-0
-0
-0
-3.96167613e-69
-0
-0
-0
-0
-0
-0
-0
-0
-0
-0
-0
-3.15595317e-69
-0
-6.99400453e-68
-0
-0
-0
-0
-0
-0
-0
-6.43834377e-68
-0
-2.7825223e-69
-2.7717181e-69
-0
-0
-0
-2.75016049e-69
-0
-0
-0
-2.75845914e-69
-0
-2.77163475e-69
-0
-0
-2.80247261e-69
-2.81557989e-69
-0
-0
-2.85739474e-69
-0
-0
-0
-0
-0
-0
-0
-0
-0
-0
-0
-0
-0
-0
-0
-7.19773203e-68
-0
-0
-0
-0
-0
-0
-0
-0
-0
-0
-0
-0
-0
-0
-0
-0
-0
-0
-0
-0
-0
-0
-0
-1.59455108e-69
-0
-0
-4.39722204e-05
-0.240708984
-0.841929367
-1.04690923
-1.07937784
-1.07913178
-1.07025716
-1.03646051
-0.75775451
-0
-0
-0
-0
-0
-0
-0
-8.02529567e-68
-0
-0.283021746
-0.541775355
-0.5131602
-0
-0
-3.02758405e-69
-0
-0
-0
-7.79008525e-68
-0
-0
-7.94095252e-68
-0
-0
-0
-0
-3.8592875e-69
-0
-0
-0
-0
-0
-0
-0
-0
-0
-0
-0
-0
-0
-0
-0
-0
-0
-0
-0
-0
-0
-2.69036842e-69
-0
-0
-0
-2.64421479e-69
-0
-0
-2.63307468e-69
-2.6332792e-69
-0
-0
-0
-0
-2.65880771e-69
-0
-0
-0
-2.70641726e-69
-0
-0
-0
-0
-2.78329484e-69
-0
-0
-0
-0
-0
-0
-2.91478038e-69
-0
-2.95603504e-69
-0
-0
-0
-0
-0
-7.05499119e-68
-0
-0
-0
-0
-0
-0
-0
-0
-0
-0
-0
-0
-0
-0
-4.70258525e-68
-4.10973618e-68
-3.63929512e-68
-3.40256174e-68
-3.34851154e-68
-1.46529951e-69
-1.45630335e-69
-1.40726855e-69
-0
-3.43400244e-06
-0.0432609741
-0.385683305
-0.845917396
-1.04011055
-1.08152338
-1.08458092
-1.07912569
-1.0695314
-1.0390839
-0.840538919
-0
-0
-0
-0
-0
-0
-3.68005597e-69
-3.56032639e-69
-0
-0.0516726766
-0.546624611
-0.526836203
-0.0909706009
-0
-0
-0
-0
-7.34537264e-68
-0
-0
-0
-0
-7.73653673e-68
-7.953055e-68
-0
-0
-0
-0
-0
-0
-0
-0
-7.9759169e-68
-0
-0
-0
-0
-2.98933695e-69
-0
-0
-0
-0
-0
-6.1638873e-68
-0
-0
-0
-0
-0
-0
-0
-0
-0
-0
-0
-0
-0
-0
-0
-0
-0
-0
-0
-0
-0
-2.59786765e-69
-2.61391764e-69
-0
-0
-2.66218695e-69
-0
-0
-0
-0
-0
-0
-0
-0
-0
-2.86413226e-69
-0
-0
-0
-0
-0
-6.8652618e-68
-0
-0
-6.97911642e-68
-6.99712359e-68
-0
-0
-0
-0
-0
-0
-0
-0
-0
-0
-0
-0
-0
-3.15891809e-68
-1.35904505e-69
-0
-0
-0.000667827718
-0.0536042059
-0.264345885
-0.599896513
-0.891711072
-1.03599142
-1.07994466
-1.08675159
-1.08405693
-1.07756321
-1.06772451
-1.03932313
-0.867655881
-2.87984748e-68
-7.12563301e-68
-0
-0
-0
-8.68276293e-68
-0
-0
-0
-1.79005799e-68
-0.552065941
-0.533004714
-0.444072582
-4.647998e-68
-0
-0
-2.95101352e-69
-0
-0
-0
-0
-0
-0
-0
-0
-0
-0
-0
-3.69765592e-69
-0
-0
-0
-0
-3.2494341e-69
-0
-3.03576167e-69
-0
-0
-0
-6.28184247e-68
-6.16229029e-68
-0
-0
-0
-0
-0
-0
-0
-0
-2.43562038e-69
-0
-0
-0
-2.40495922e-69
-0
-0
-2.4039476e-69
-0
-0
-0
-0
-2.43628414e-69
-0
-0
-0
-0
-0
-0
-0
-0
-0
-2.59505476e-69
-0
-0
-2.65879251e-69
-0
-0
-0
-2.74714552e-69
-2.77114399e-69
-0
-0
-0
-2.86799343e-69
-0
-2.91303408e-69
-0
-0
-0
-0
-0
-0
-0
-0
-0
-0
-0
-0
-0
-0
-0
-0
-0
-1.29254528e-69
-0
-0
-0.0260395394
-0.241740605
-0.538404734
-0.783985695
-0.948313382
-1.04000075
-1.07721996
-1.08640537
-1.08607429
-1.08227716
-1.07548789
-1.06527108
-1.03810468
-0.878796057
-0
-0
-3.88770537e-69
-0
-3.87028678e-69
-0
-0
-0
-0
-0
-0.553431087
-0.539898913
-0.516923275
-0
-0
-0
-2.74752985e-69
-2.83582543e-69
-0
-0
-0
-0
-0
-0
-0
-0
-0
-0
-0
-0
-0
-0
-0
-0
-3.02076836e-69
-0
-0
-0
-6.1357164e-68
-0
-0
-0
-0
-0
-0
-0
-0
-0
-0
-0
-2.30681255e-69
-0
-2.29341354e-69
-0
-0
-0
-0
-2.29515721e-69
-0
-2.3081286e-69
-0
-2.32678171e-69
-0
-0
-0
-2.38317682e-69
-2.40116082e-69
-0
-0
-0
-0
-0
-2.51436981e-69
-0
-0
-0
-0
-0
-0
-0
-2.70296663e-69
-2.72870251e-69
-0
-0
-0
-0
-0
-0
-0
-0
-0
-0
-0
-6.4106464e-68
-6.25784422e-68
-0
-0
-0
-0
-4.45903874e-68
-0
-3.22318553e-68
-0
-0
-6.72709111e-07
-0.0501900101
-0.380511367
-0.705822852
-0.888395222
-0.990753708
-1.04761703
-1.07478142
-1.08438016
-1.08580232
-1.08407638
-1.08007613
-1.07309708
-1.06227566
-1.03549695
-0.887881767
-0
-0
-0
-3.95248884e-69
-0
-3.74229431e-69
-0
-3.59071143e-69
-0
-0
-0.530411036
-0.545721846
-0.527456912
-0.120960519
-0
-0
-0
-0
-0
-0
-2.75502569e-69
-0
-0
-0
-0
-0
-0
-0
-0
-0
-0
-0
-3.14857873e-69
-0
-0
-0
-0
-0
-5.84516842e-68
-0
-0
-0
-0
-0
-0
-0
-0
-2.22478121e-69
-0
-0
-2.18996278e-69
-0
-0
-0
-0
-0
-0
-0
-0
-0
-0
-2.21848851e-69
-0
-0
-0
-0
-0
-0
-0
-0
-2.36890936e-69
-0
-0
-2.43682754e-69
-2.46022169e-69
-0
-0
-0
-0
-0
-0
-0
-0
-0
-0
-0
-0
-0
-0
-0
-0
-0
-0
-0
-0
-0
-0
-0
-0
-0
-0
-0
-1.20486352e-69
-2.06392198e-08
-0.042403852
-0.40697776
-0.763131645
-0.935110077
-1.01303875
-1.05212423
-1.07209083
-1.08099166
-1.08382016
-1.08359058
-1.08165225
-1.07760317
-1.07042032
-1.0587946
-1.03138297
-0.896164581
-0.00399175761
-0
-0
-0
-3.81294386e-69
-3.71104517e-69
-0
-0
-0
-0
-0.41816733
-0.549835283
-0.531199221
-0.467488516
-0
-0
-0
-0
-0
-2.55127675e-69
-0
-0
-0
-0
-0
-0
-3.20527129e-69
-0
-0
-0
-0
-0
-3.02188128e-69
-0
-0
-2.66882259e-69
-0
-0
-0
-0
-0
-0
-0
-0
-0
-0
-0
-2.10460304e-69
-2.09179046e-69
-0
-0
-2.0682501e-69
-2.06463214e-69
-2.06294393e-69
-0
-0
-2.06889143e-69
-0
-0
-0
-2.10016912e-69
-0
-0
-2.13787632e-69
-0
-0
-2.19176624e-69
-2.21081464e-69
-0
-0
-0
-2.28783152e-69
-0
-0
-0
-0
-2.40797018e-69
-0
-0
-0
-0
-0
-2.57084685e-69
-0
-0
-0
-0
-0
-0
-0
-0
-0
-0
-0
-0
-5.56979798e-68
-0
-0
-4.48052691e-68
-0
-0
-0
-0
-0.0209630723
-0.345987909
-0.74941462
-0.941470495
-1.01771323
-1.05115193
-1.06774669
-1.07626074
-1.08018703
-1.08141975
-1.08089431
-1.07896998
-1.07487246
-1.0674516
-1.0548944
-1.02584239
-0.899055547
-0.0882008219
-0
-0
-0
-0
-0
-8.15474077e-68
-0
-0
-6.15880634e-68
-0.100327756
-0.553391597
-0.537739425
-0.523524878
-6.91466787e-70
-4.78243959e-68
-4.92133329e-68
-0
-0
-0
-0
-0
-0
-0
-0
-0
-0
-0
-0
-0
-0
-3.02690106e-69
-0
-0
-0
-0
-5.59444294e-68
-0
-0
-0
-0
-0
-0
-0
-0
-0
-0
-1.98469916e-69
-0
-1.96490224e-69
-0
-0
-0
-0
-0
-1.95475106e-69
-0
-0
-0
-0
-0
-0
-0
-0
-0
-0
-0
-0
-2.12593491e-69
-2.14406241e-69
-0
-2.18606745e-69
-2.21103482e-69
-0
-2.26184103e-69
-0
-0
-0
-0
-0
-0
-0
-0
-0
-2.53031075e-69
-0
-0
-0
-2.60156289e-69
-0
-0
-0
-0
-0
-2.40968001e-69
-0
-2.20571688e-69
-0
-1.81544264e-69
-0
-1.2723248e-69
-0
-0.00582271872
-0.243387585
-0.680874067
-0.918163999
-1.0083422
-1.04417879
-1.06096344
-1.06993809
-1.07498444
-1.07758406
-1.07847158
-1.07793947
-1.07605048
-1.07187104
-1.0641754
-1.05063561
-1.01922389
-0.895172273
-0.195982776
-0
-0
-0
-0
-0
-0
-3.51142653e-69
-3.55038196e-69
-0
-0
-0.558805433
-0.544027512
-0.527649696
-0.340142955
-1.7095315e-69
-4.59693791e-68
-0
-0
-0
-2.28128277e-69
-2.34850666e-69
-0
-0
-0
-2.78624339e-69
-0
-0
-0
-0
-0
-0
-0
-0
-0
-0
-5.27706187e-68
-0
-0
-0
-0
-0
-0
-1.9356168e-69
-0
-0
-0
-0
-0
-0
-0
-0
-0
-0
-1.84148036e-69
-0
-0
-0
-1.8665005e-69
-0
-0
-0
-0
-0
-1.94539606e-69
-0
-1.98564828e-69
-0
-0
-0
-2.0618017e-69
-2.08468305e-69
-0
-0
-0
-0
-0
-0
-0
-0
-2.32487403e-69
-2.35427729e-69
-0
-0
-0
-2.45965591e-69
-0
-0
-2.50429661e-69
-0
-0
-0
-0
-0
-0
-0
-2.08053077e-69
-0
-0
-0
-0
-0.000478399931
-0.138594681
-0.568382513
-0.866829875
-0.986091133
-1.03109375
-1.05112027
-1.06181563
-1.06820532
-1.07217081
-1.07441739
-1.07525415
-1.07476144
-1.07288369
-1.06858045
-1.06057155
-1.04605453
-1.01190897
-0.886432059
-0.256173777
-0
-0
-0
-0
-0
-0
-0
-3.555086e-69
-0
-0
-0.553494395
-0.549100063
-0.532203003
-0.513464771
-0
-4.2482664e-68
-4.45303621e-68
-0
-0
-0
-2.20630412e-69
-0
-2.39216272e-69
-2.50901948e-69
-0
-0
-0
-0
-2.87489686e-69
-0
-0
-0
-0
-0
-0
-0
-4.76126923e-68
-0
-0
-0
-0
-1.83271117e-69
-0
-0
-1.76865174e-69
-1.75561132e-69
-1.74565706e-69
-3.98039394e-68
-1.73282833e-69
-0
-0
-3.9552982e-68
-0
-0
-0
-0
-1.75083701e-69
-1.76032283e-69
-1.77119601e-69
-0
-1.79640087e-69
-0
-0
-0
-1.86205277e-69
-0
-0
-0
-0
-0
-0
-2.01041515e-69
-0
-0
-2.08743801e-69
-2.11139649e-69
-2.1373971e-69
-2.16634657e-69
-0
-0
-0
-0
-0
-2.34017131e-69
-0
-0
-2.39711151e-69
-0
-0
-0
-0
-2.31580742e-69
-0
-2.17085889e-69
-2.06925185e-69
-1.94290729e-69
-1.75174528e-69
-0
-0
-0
-0.0611639736
-0.430661103
-0.785392472
-0.949178782
-1.01121695
-1.03758287
-1.05141673
-1.05980042
-1.06524483
-1.06882938
-1.07097295
-1.07181672
-1.07135255
-1.06945223
-1.06498114
-1.05661764
-1.04116534
-1.00419072
-0.874396976
-0.281604839
-0
-0
-0
-0
-0
-3.44549574e-69
-0
-3.54308739e-69
-0
-0
-0.46329584
-0.551579993
-0.537518873
-0.529441919
-0.221415716
-0
-0
-0
-0
-0
-0
-0
-0
-5.41067182e-68
-0
-0
-0
-0
-0
-2.67075621e-69
-2.57125934e-69
-0
-2.31575924e-69
-0
-0
-0
-0
-0
-0
-0
-0
-0
-0
-0
-0
-1.63420287e-69
-1.62650337e-69
-0
-1.61729249e-69
-0
-0
-0
-0
-0
-1.62836758e-69
-1.6356998e-69
-0
-0
-1.66656224e-69
-0
-1.69320725e-69
-0
-1.72335627e-69
-1.74033491e-69
-1.76018533e-69
-0
-0
-4.16756143e-68
-1.83832657e-69
-0
-0
-0
-0
-0
-1.98790412e-69
-0
-0
-2.06780613e-69
-0
-2.13154718e-69
-2.16132248e-69
-2.18972291e-69
-2.2169657e-69
-2.24254591e-69
-2.26534268e-69
-0
-2.2964836e-69
-0
-0
-0
-0
-2.19833435e-69
-0
-0
-0
-0
-0
-0
-0
-0.0185578252
-0.297959373
-0.676687048
-0.894076011
-0.982848797
-1.01959108
-1.03816205
-1.04941289
-1.05680012
-1.06181216
-1.06520868
-1.06730257
-1.0681522
-1.06769364
-1.06573669
-1.06105381
-1.05229092
-1.03596705
-0.996289148
-0.86004874
-0.27955642
-0
-0
-0
-0
-0
-0
-0
-0
-0
-0
-0.0956828194
-0.554186723
-0.542543609
-0.532566938
-0.510578543
-0
-0
-0
-0
-0
-0
-0
-0
-5.08846737e-68
-0
-0
-0
-0
-2.54597408e-69
-0
-0
-0
-0
-0
-0
-0
-0
-0
-1.66147995e-69
-0
-0
-0
-0
-0
-0
-1.51297196e-69
-0
-0
-0
-0
-1.50245706e-69
-0
-0
-0
-0
-0
-0
-0
-0
-3.60944905e-68
-0
-0
-0
-0
-0
-1.68083202e-69
-0
-0
-0
-0
-1.78302588e-69
-4.14733659e-68
-4.21266123e-68
-0
-1.88784852e-69
-0
-0
-1.9688474e-69
-0
-2.03365924e-69
-2.06308421e-69
-0
-0
-0
-4.95828773e-68
-0
-0
-2.19619998e-69
-0
-0
-2.12837434e-69
-0
-0
-0
-0
-0
-0
-0
-0.00394435845
-0.191312889
-0.553858032
-0.818594431
-0.943367524
-0.996020328
-1.0215079
-1.03656438
-1.04655381
-1.05337543
-1.05809601
-1.0613468
-1.06339419
-1.06423719
-1.06376201
-1.06171738
-1.05678017
-1.04756972
-1.03044761
-0.988377629
-0.844284666
-0.253754326
-0
-0
-8.55907818e-68
-0
-7.94378201e-68
-0
-0
-0
-0
-2.92347544e-69
-0
-0.557329854
-0.547297547
-0.537450131
-0.535845211
-0.265411781
-0
-0
-0
-0
-0
-0
-0
-0
-0
-0
-0
-2.37706957e-69
-0
-0
-0
-0
-0
-0
-4.08697483e-68
-0
-0
-0
-0
-1.48073009e-69
-0
-0
-1.4167458e-69
-0
-1.39726323e-69
-3.18788142e-68
-0
-1.38733996e-69
-1.38712677e-69
-1.38823263e-69
-0
-1.39435879e-69
-3.2046339e-68
-0
-0
-0
-0
-0
-0
-0
-0
-0
-0
-0
-0
-0
-3.66120747e-68
-0
-0
-0
-1.68339754e-69
-0
-3.9847384e-68
-0
-1.78708891e-69
-0
-0
-0
-0
-0
-1.96333753e-69
-0
-0
-0
-0
-2.07869905e-69
-0
-0
-2.0757057e-69
-0
-0
-0
-0
-0
-0
-0
-0
-0.000425128527
-0.108446354
-0.431467185
-0.724358733
-0.890145355
-0.965248098
-1.00078447
-1.02090262
-1.03410345
-1.04328152
-1.04965226
-1.05410656
-1.05721739
-1.05921578
-1.06004319
-1.05953425
-1.05737512
-1.05214324
-1.04243453
-1.02458715
-0.980579845
-0.82807366
-0.20802334
-0
-0
-0
-0
-0
-0
-3.28800759e-69
-0
-0
-0
-1.73134268e-69
-0.510246901
-0.54931094
-0.541155148
-0.537675038
-0.526160376
-2.58324633e-08
-0
-0
-0
-3.93027183e-68
-0
-0
-0
-0
-0
-0
-0
-0
-0
-0
-0
-0
-0
-0
-0
-0
-0
-0
-0
-0
-0
-2.94749827e-68
-0
-0
-0
-1.27134293e-69
-0
-0
-0
-0
-0
-0
-0
-0
-0
-0
-0
-0
-0
-3.17893018e-68
-0
-0
-0
-0
-0
-3.42684749e-68
-0
-0
-0
-3.62788323e-68
-0
-0
-0
-0
-1.71003776e-69
-0
-1.76972689e-69
-0
-0
-0
-0
-1.91393485e-69
-0
-0
-0
-0
-1.97592816e-69
-0
-0
-1.87915049e-69
-1.80899093e-69
-0
-0
-0
-0
-4.60718956e-05
-0.061330406
-0.32023618
-0.61746826
-0.821399214
-0.925328217
-0.975064747
-1.00205131
-1.01922804
-1.03117948
-1.03966753
-1.04560167
-1.04979313
-1.05277332
-1.05472975
-1.05554117
-1.05498779
-1.0526917
-1.04712755
-1.03686899
-1.01836163
-0.972960383
-0.812370467
-0.145755291
-0
-0
-0
-0
-0
-0
-0
-0
-3.49510841e-69
-3.30088848e-69
-0
-0.177023952
-0.550519118
-0.544539977
-0.540579239
-0.539030386
-0.418772089
-0
-1.38406448e-69
-0
-1.58628834e-69
-0
-1.76209265e-69
-0
-0
-0
-0
-0
-0
-1.99108503e-69
-0
-0
-0
-0
-0
-1.37042021e-69
-0
-0
-0
-0
-0
-0
-0
-0
-0
-0
-0
-0
-0
-0
-2.6697533e-68
-0
-0
-0
-0
-2.77210074e-68
-0
-0
-0
-0
-0
-0
-3.02544126e-68
-0
-0
-0
-0
-3.23618894e-68
-0
-3.34394809e-68
-0
-0
-0
-0
-0
-0
-0
-0
-0
-1.73184462e-69
-0
-1.7832233e-69
-0
-0
-0
-0
-0
-0
-1.83998837e-69
-0
-0
-0
-0
-0
-1.11096362e-69
-0.000117170545
-0.0417095133
-0.238518345
-0.510528502
-0.738280278
-0.874127559
-0.94307173
-0.979511392
-1.00172965
-1.01693225
-1.02782255
-1.0356365
-1.04113792
-1.04508607
-1.04796338
-1.04989938
-1.05070415
-1.05010191
-1.04765021
-1.04171909
-1.03086067
-1.01174637
-0.965518013
-0.798002758
-0.0773388699
-0
-7.66264782e-68
-8.23934067e-68
-0
-0
-3.22675323e-69
-0
-0
-3.47362711e-69
-0
-0
-0
-0.549871844
-0.547468849
-0.542852521
-0.540398436
-0.541903036
-0.130315987
-0
-0
-0
-0
-0
-0
-0
-0
-0
-1.88780691e-69
-0
-1.82154063e-69
-0
-0
-0
-0
-0
-0
-0
-1.10510657e-69
-0
-0
-0
-0
-0
-0
-0
-0
-0
-0
-0
-0
-0
-0
-0
-0
-0
-0
-0
-2.59467028e-68
-0
-0
-0
-0
-0
-0
-0
-0
-2.94708933e-68
-0
-0
-0
-0
-0
-0
-0
-0
-0
-3.52036906e-68
-0
-0
-0
-0
-0
-0
-1.7242058e-69
-1.74149898e-69
-0
-0
-0
-1.71297204e-69
-0
-1.58177037e-69
-1.45617419e-69
-0
-1.07606173e-69
-0.000463634534
-0.0412948331
-0.186769487
-0.415120399
-0.646798562
-0.810291401
-0.902944945
-0.952475444
-0.981362451
-1.00044387
-1.01402758
-1.02390479
-1.03105757
-1.03616056
-1.03991624
-1.04274119
-1.04469294
-1.04550913
-1.04485852
-1.04223513
-1.03590522
-1.02440153
-1.00471803
-0.958180966
-0.785505065
-0.0268843365
-0
-0
-0
-0
-0
-0
-0
-0
-0
-0
-0
-0
-0.437538899
-0.546133807
-0.544297948
-0.542022149
-0.54271687
-0.525582061
-0.00356446106
-0
-0
-0
-0
-0
-0
-0
-0
-0
-0
-0
-0
-0
-0
-0
-0
-0
-0
-0
-0
-9.14422628e-70
-0
-0
-0
-0
-0
-0
-0
-0
-0
-0
-0
-0
-0
-0
-2.31088115e-68
-0
-0
-0
-0
-0
-2.51301686e-68
-0
-0
-0
-2.64006415e-68
-2.65750547e-68
-0
-0
-0
-0
-0
-0
-0
-0
-0
-0
-0
-0
-0
-0
-0
-0
-0
-0
-1.62839774e-69
-0
-1.63023561e-69
-0
-0
-0
-0
-0
-1.05344302e-69
-0.000542014942
-0.0396267284
-0.154357371
-0.334410127
-0.551631154
-0.734596266
-0.852401569
-0.919465264
-0.957638781
-0.981610914
-0.998232088
-1.0103316
-1.01923979
-1.02579167
-1.03057816
-1.03422681
-1.03707113
-1.03908672
-1.03993851
-1.03924265
-1.03643238
-1.02967438
-1.01748764
-0.997254432
-0.95081113
-0.775088783
-0.00718238602
-4.37120747e-68
-0
-0
-0
-0
-0
-0
-0
-0
-0
-0
-0
-0.0018571287
-0.546354184
-0.546258795
-0.543379178
-0.542862822
-0.546418352
-0.481266104
-0
-1.16623351e-69
-1.26756875e-69
-0
-0
-1.52279008e-69
-0
-0
-1.58066049e-69
-0
-3.41248211e-68
-0
-0
-2.51656901e-68
-0
-9.12402228e-70
-0
-0
-8.20712193e-70
-8.09002073e-70
-0
-0
-0
-0
-0
-0
-0
-0
-0
-0
-1.49898874e-68
-0
-0
-1.54221774e-68
-0
-0
-0
-0
-0
-0
-0
-0
-0
-0
-0
-0
-0
-0
-0
-0
-0
-0
-0
-0
-0
-0
-0
-0
-0
-0
-0
-0
-0
-0
-0
-0
-0
-3.4322078e-68
-0
-0
-0
-0
-0
-0.000185922733
-0.0286492296
-0.118727034
-0.26225866
-0.455732275
-0.647369685
-0.78986671
-0.878257861
-0.929518373
-0.96016799
-0.980393276
-0.99486296
-1.00559424
-1.01364314
-1.01972289
-1.02432472
-1.02798194
-1.03093284
-1.03306725
-1.03398094
-1.03324255
-1.03022894
-1.02301558
-1.01011816
-0.989334968
-0.943214011
-0.766685368
-0.0100525133
-0
-0
-0
-0
-0
-0
-3.05040128e-69
-0
-0
-0
-0
-0
-1.41203766e-69
-0.470794957
-0.544868604
-0.543795999
-0.543508782
-0.544974349
-0.546842459
-0.421566882
-1.66148867e-68
-0
-0
-1.29562378e-69
-0
-0
-0
-0
-0
-0
-0
-0
-9.00253584e-70
-0
-0
-0
-6.04118721e-70
-0
-5.09850866e-70
-4.63690906e-70
-0.000143106216
-0.00309799269
-0.0151034402
-0.0396928348
-0.0748385892
-0.115480213
-0.15662259
-0.194823541
-0.228276281
-0.256286012
-0.278727014
-0.295650483
-0.307062818
-0.312827907
-0.3126174
-0.30585981
-0.291697157
-0.269023356
-0.236732873
-0.194354743
-0.143297744
-0.0886747573
-0.0404473224
-0.0100588252
-0.000503710588
-0
-0
-0
-0
-0
-0
-0
-0
-0
-0
-0
-0
-0
-0
-0
-0
-0
-0
-0
-0
-3.14339157e-68
-0
-0
-0
-0
-9.94475333e-70
-8.98447129e-05
-0.0167388117
-0.0849571362
-0.198880519
-0.365213368
-0.553550754
-0.715343678
-0.827389302
-0.89550147
-0.935537522
-0.960379721
-0.977442949
-0.990020086
-0.999584631
-1.00697739
-1.01278221
-1.01737199
-1.02117294
-1.02432422
-1.02663244
-1.02763145
-1.02684922
-1.02361234
-1.01591775
-1.00229307
-0.980945308
-0.935172096