/*--------------------------------*- C++ -*----------------------------------*\
| =========                 |                                                 |
| \\      /  F ield         | OpenFOAM: The Open Source CFD Toolbox           |
|  \\    /   O peration     | Version:  2506                                  |
|   \\  /    A nd           | Website:  www.openfoam.com                      |
|    \\/     M anipulation  |                                                 |
\*---------------------------------------------------------------------------*/
FoamFile
{
    version     2.0;
    format      ascii;
    arch        "LSB;label=32;scalar=64";
    class       volSymmTensorField;
    location    "2644";
    object      Sij;
}
// * * * * * * * * * * * * * * * * * * * * * * * * * * * * * * * * * * * * * //

dimensions      [0 0 -1 0 0 0 0];

internalField   nonuniform List<symmTensor> 
15600
(
(0.0220874445 6.39282267 -7.06825705e-20 -0.0115321029 -7.34084865e-22 -6.03546843e-40)
(0.30834076 6.97170868 2.91948143e-18 -0.327854245 -1.55713428e-18 -1.25911295e-36)
(1.03381865 4.74193666 -1.54944364e-18 -1.01069626 -3.12431839e-20 0)
(-0.0474480608 0.257429143 9.4277421e-15 -0.00947071389 3.34280361e-14 5.28352938e-38)
(-2.18274154 -1.71447029 1.9470304e-14 2.12072126 4.10437109e-14 -5.47894523e-38)
(-2.75345799 -1.34196576 -7.4522468e-17 2.70327011 -1.470541e-16 2.18266269e-33)
(-2.31359162 -0.737548754 -6.17251004e-17 2.28773052 -9.28201938e-17 4.3572388e-38)
(-2.12526484 -0.473809086 -2.1593895e-15 2.0977004 -2.48288172e-17 8.02646335e-34)
(-1.88182438 -0.3317754 6.12198247e-15 1.86047262 1.5821945e-14 6.76393083e-29)
(-1.63436601 -0.271420359 1.10295797e-14 1.61623544 1.54460372e-14 6.66339601e-29)
(-1.39329449 -0.255811219 2.22335164e-15 1.38161387 -7.69405592e-17 -1.14588917e-34)
(-1.24502924 -0.256861025 2.21426522e-20 1.2368472 2.7508681e-20 -2.14289853e-40)
(-1.16184059 -0.261567574 -1.02846002e-17 1.15633973 5.68157692e-19 9.48094129e-37)
(-1.14065883 -0.273173928 -2.27377287e-16 1.13693073 -2.74408091e-16 2.85761855e-36)
(-1.17341159 -0.293190826 1.74446526e-16 1.17043988 2.25674865e-16 3.78975024e-33)
(-1.24655697 -0.320363336 -1.4553611e-18 1.24349663 -1.28174423e-19 -1.95453266e-36)
(-1.32555866 -0.352669888 5.89632146e-17 1.32118416 5.94326839e-17 9.48336258e-34)
(-1.37714463 -0.399125893 5.37344099e-17 1.37188226 5.61480284e-17 -1.04620586e-33)
(-1.39287078 -0.463123192 -1.24745725e-16 1.38685187 -1.18297003e-16 8.05948352e-36)
(-1.36009314 -0.541771035 -6.0576126e-17 1.35402772 -1.2946065e-16 -7.57833966e-36)
(-1.27223789 -0.62941523 -2.99950392e-17 1.2668455 -6.51755967e-17 9.59811071e-34)
(-1.13996535 -0.723193592 1.24999579e-17 1.13652132 6.86288431e-17 9.68808009e-34)
(-0.986821135 -0.814888145 1.12879041e-16 0.985378242 2.08887635e-16 3.98130945e-36)
(-0.818711206 -0.892980882 7.61193091e-18 0.818870145 -1.13329362e-18 2.16366468e-36)
(-0.640428052 -0.954961715 5.85073981e-17 0.642028816 1.91032387e-16 -2.09564321e-36)
(-0.458555786 -1.00963292 -1.18831385e-15 0.4627215 -1.61887958e-17 0)
(-0.276550401 -1.04482006 -1.01126656e-15 0.277465029 5.68371251e-15 5.69825968e-30)
(-0.117834387 -1.22408568 7.18141903e-16 0.124996197 4.99555084e-15 4.85760779e-30)
(-0.041984341 -1.62429849 1.17725721e-15 0.0507396752 -9.56138687e-17 2.3556463e-46)
(-0.037191544 -2.00684831 -3.78542192e-24 0.0436754118 2.97834155e-25 4.75173671e-62)
(-0.0307112386 -2.30856779 -1.38678172e-15 0.0381754886 1.02071696e-16 0)
(-0.0264390712 -2.56911503 -2.90205367e-15 0.0336250583 6.23362165e-15 7.24340709e-30)
(-0.0224689404 -2.78705584 -2.14507121e-16 0.0298253863 5.58423815e-15 6.27043045e-30)
(-0.0191526831 -2.97158142 1.43654293e-15 0.0265081487 -9.74596047e-17 0)
(-0.0161745368 -3.12602701 -6.77482659e-34 0.023565568 -4.96275166e-19 0)
(-0.0134680726 -3.2538328 0 0.0208258479 -5.25543014e-19 0)
(-0.010937918 -3.35690647 -1.93694377e-20 0.0182243917 5.25540431e-19 0)
(-0.00856246618 -3.436958 1.63138334e-15 0.0157211287 -9.1294005e-17 2.20816869e-34)
(-0.00632630736 -3.49543225 3.62526963e-15 0.0133155391 -6.87090532e-15 7.66524948e-30)
(-0.00421937431 -3.53369792 3.20102662e-16 0.0109947282 -6.46740421e-15 7.02470359e-30)
(-0.00223312736 -3.55296772 -1.70569455e-15 0.00875431259 8.6365914e-17 2.3086878e-34)
(-0.000366367545 -3.5544423 3.01820431e-20 0.00659086696 8.66419525e-20 -1.89682911e-44)
(0.00138198117 -3.5393071 1.11922535e-20 0.00451192699 2.42536249e-19 1.89682911e-44)
(0.00301179608 -3.50872002 -1.1039553e-20 0.00252374451 -5.78932219e-19 5.25062257e-43)
(0.00452242953 -3.46383081 3.63776106e-20 0.000631604866 -1.07597288e-19 -5.25062267e-43)
(0.00591446846 -3.40577758 -2.22693646e-15 -0.00116031334 7.98500523e-17 0)
(0.00718982228 -3.33567536 -4.21904987e-15 -0.00284923576 9.24518451e-15 1.06761766e-29)
(0.00835133263 -3.25460827 3.60768912e-16 -0.00443358236 9.05274059e-15 1.02859158e-29)
(0.00940254811 -3.163624 2.31321289e-15 -0.00591271692 -7.03471443e-17 -1.56556449e-34)
(0.0103472506 -3.06373013 1.8404075e-20 -0.00728672506 1.44923216e-19 9.151285e-40)
(0.011188745 -2.95589702 1.06704999e-20 -0.00855534891 -3.68787814e-19 1.0279228e-39)
(0.0119295272 -2.84106566 -2.55906148e-15 -0.00971778189 5.24875475e-17 1.73191053e-34)
(0.0125711423 -2.72015577 -4.13219685e-15 -0.0107725666 1.08421652e-14 1.20033077e-29)
(0.013113927 -2.59407593 1.12918541e-15 -0.0117172016 1.08865846e-14 1.19517467e-29)
(0.0135570023 -2.4637355 2.63568094e-15 -0.0125482266 -4.03403362e-17 -8.91892796e-35)
(0.0138989089 -2.33005367 8.00083374e-21 -0.0132616403 -2.88306864e-21 0)
(0.0141389292 -2.19395889 -4.38500084e-21 -0.0138546411 -2.6995174e-21 5.25968703e-52)
(0.0142793399 -2.05637309 5.68760523e-21 -0.0143274813 8.10812031e-20 3.79362065e-41)
(0.0143280188 -1.91817098 3.52359045e-21 -0.0146869914 3.59026388e-20 -7.50468292e-41)
(0.014298154 -1.7801219 -7.0666294e-21 -0.0149467515 9.9258514e-21 3.71106226e-41)
(0.0142054422 -1.64285782 6.98185519e-21 -0.0151225352 -3.46327518e-20 0)
(0.0140610827 -1.50687022 -4.04629715e-21 -0.0152287544 8.41517364e-20 6.39316047e-44)
(0.0138676212 -1.3726005 -5.44032269e-21 -0.0152658866 9.49300902e-20 -6.39316047e-44)
(0.0136228249 -1.2405018 4.7451992e-21 -0.0152344418 -1.44867658e-19 2.7887851e-50)
(0.0133287835 -1.11105424 -1.01268868e-20 -0.0151326009 -1.28512444e-22 0)
(0.0129962842 -0.98466702 9.19183811e-21 -0.0149771542 -1.05377589e-19 2.53421374e-43)
(0.0126368261 -0.861627447 1.10694245e-20 -0.0147781001 1.05764173e-19 -2.53421374e-43)
(0.0122583041 -0.742143245 -1.01343758e-20 -0.0145471825 -1.80050474e-22 0)
(0.0118621994 -0.626365366 0 -0.0142850651 0 0)
(0.0114427425 -0.514479158 0 -0.0139871019 0 0)
(0.0109949115 -0.406739495 0 -0.0136498239 0 0)
(0.0105221019 -0.30341695 3.68888931e-15 -0.0132777806 1.13022298e-16 0)
(0.0100350174 -0.204700047 7.55173078e-15 -0.0128858049 -1.75222909e-14 1.91822109e-29)
(0.00954482297 -0.11066722 1.79599124e-16 -0.0124862687 -3.67771126e-14 8.10711126e-29)
(0.00905741932 -0.021309456 -7.42713561e-15 -0.0120845597 -1.92176306e-14 2.1330063e-29)
(0.00857051861 0.0633952245 -3.74647246e-15 -0.0116777988 -1.449804e-16 5.07095856e-34)
(0.00807444647 0.143408851 4.46729618e-20 -0.0112567099 4.72804128e-19 6.14183265e-39)
(0.00755700948 0.218573904 1.21279444e-21 -0.0108065944 2.20641951e-19 -2.50888508e-42)
(0.0070045472 0.288626179 3.95823151e-15 -0.010316495 1.9208251e-16 2.50888508e-42)
(0.00639965493 0.353152368 3.75653623e-15 -0.00976681913 -1.82983555e-14 1.99498425e-29)
(0.00571718667 0.411560311 -4.1844685e-15 -0.00913530884 -1.98289762e-14 2.20762201e-29)
(0.00492880661 0.462965441 -3.95128274e-15 -0.00838746951 -2.10369264e-16 5.348308e-34)
(0.00399429543 0.506236417 -5.108607e-20 -0.00749219756 5.03727108e-19 6.63155412e-39)
(0.00287588016 0.539731741 3.11856232e-21 -0.00639362191 4.73503189e-19 -1.32131386e-38)
(0.00152210757 0.561587307 -3.30720436e-21 -0.00506920383 -9.80322766e-19 6.58158451e-39)
(-6.42601709e-05 0.569164934 1.53716583e-19 -0.00346779151 -2.54091615e-18 2.71424811e-38)
(-0.00198052414 0.560439426 -6.52540772e-21 -0.00162725463 3.59564671e-18 -5.40768654e-38)
(-0.00416890416 0.531009688 -2.98794316e-19 0.000687617861 -1.06588218e-18 2.69343843e-38)
(-0.00684134879 0.47973406 3.06887677e-19 0.00315969573 -1.03906684e-18 2.78049532e-38)
(-0.00957271641 0.398307717 -4.37620144e-21 0.00632996955 3.6976643e-18 -5.53685118e-38)
(-0.0128165568 0.292522292 -2.03142064e-19 0.00897388738 -4.23934128e-18 2.75635585e-38)
(-0.0188989733 0.144619171 1.0272921e-19 0.015347956 1.59570596e-18 0)
(-0.0107815887 -0.0746546427 1.05765362e-19 0.0106814861 8.86710903e-21 0)
(0.0381616171 -0.159813429 -2.75164643e-17 -0.039176641 -1.28215259e-18 1.10939743e-35)
(0.0617554142 -0.125281744 6.14030862e-17 -0.0557068542 -2.80175135e-16 -1.484868e-35)
(0.0538037417 -0.0657702087 -1.49452891e-16 -0.0451515557 4.0460203e-16 -7.14609177e-36)
(-0.0112711881 0.0292681418 4.70466462e-16 0.0240842797 -1.34180476e-15 4.48589648e-35)
(-0.136153563 0.130323744 3.59508657e-16 0.151787479 -5.21882104e-16 -3.08445096e-35)
(-0.333954006 0.233157915 -2.84228052e-16 0.352070205 5.18576382e-16 0)
(-0.64650438 0.348933826 3.11423725e-16 0.663476687 -5.03819584e-16 0)
(-1.1065143 0.482392157 2.47754383e-16 1.11915281 -2.25462942e-16 3.75482109e-33)
(-1.74121091 0.638183938 -4.14301193e-16 1.74316558 4.74532079e-16 -8.11891802e-33)
(-2.55132537 0.818658944 4.69345174e-16 2.5376245 -7.0124322e-16 0)
(-3.50389094 1.02938683 -4.47381737e-17 3.46906135 -3.3387868e-18 0)
(-4.47512628 1.25601496 3.2176552e-16 4.42383132 -4.73997936e-16 0)
(-5.4138414 1.45671844 -1.21202447e-16 5.34708796 2.2877467e-16 3.51343912e-33)
(-6.38518271 1.62326629 -1.14259959e-16 6.3017054 2.28520656e-16 3.45339591e-33)
(-7.4643907 1.76037823 -1.06569044e-16 7.36102909 2.27649287e-16 3.37870416e-33)
(-8.75337455 1.87533402 4.67938502e-16 8.62216963 -3.81736843e-16 -7.40866892e-33)
(-10.4246515 1.98341133 1.58268634e-16 10.2510611 -2.20184816e-16 3.13233096e-33)
(-12.8232556 2.22419474 4.70664889e-16 12.5678752 -7.61408028e-16 1.25341723e-32)
(-15.9371348 2.95128468 2.80618049e-16 15.5806871 -3.42242882e-16 0)
(-19.4668733 4.51553459 -1.97135855e-16 19.0026985 2.96187564e-16 2.7060251e-37)
(-23.2639834 7.54722591 3.57023183e-17 22.666772 -9.0191621e-17 -3.27919957e-37)
(-26.0946538 12.8393712 1.94173985e-16 25.4122859 -3.3258816e-16 5.24992243e-38)
(-24.8429577 20.4192005 -5.57424666e-18 24.2047958 2.39006315e-17 0)
(-15.4302379 24.5937909 -1.00476301e-16 15.1783573 -6.32629813e-18 -1.4373102e-34)
(-5.62811094 20.0487091 2.97668703e-18 5.56833692 -4.13626291e-20 0)
(-0.946994952 11.7549486 -1.53065082e-19 0.988357081 6.25500352e-18 0)
(-0.121381706 6.84306922 -3.00443426e-19 0.10541366 1.52498922e-21 0)
(-0.00884945572 7.63957884 -1.35686344e-22 0.0198210821 3.49112433e-22 0)
(0.255072982 7.6333445 3.32880009e-18 -0.281537905 3.4867303e-18 3.00388701e-36)
(0.941416927 5.69099533 1.74572775e-15 -0.899959793 2.5004762e-17 5.63103529e-35)
(0.326954681 1.58547636 -1.10850424e-14 -0.302004667 -3.10070105e-14 -4.38687512e-30)
(-1.58066779 -0.990535636 -1.1498464e-14 1.63357231 -4.38075342e-14 -1.6623442e-30)
(-2.33261883 -1.13225618 -2.35357315e-15 2.3648405 1.09667821e-16 -2.10454353e-33)
(-2.05857948 -0.683794811 6.41870949e-17 2.08793432 8.96030697e-17 1.09026452e-38)
(-1.9118271 -0.436625553 3.22137267e-15 1.93223369 -1.34637176e-16 -7.7374453e-34)
(-1.71151725 -0.31128239 2.95628376e-14 1.73051144 2.52053042e-14 -6.55142798e-29)
(-1.50365249 -0.260303131 2.35771446e-14 1.51686214 2.67399411e-14 -6.39222749e-29)
(-1.30150296 -0.248189056 -3.4107882e-15 1.31133831 1.17933729e-16 3.39143559e-34)
(-1.17629595 -0.247379248 -1.5277744e-20 1.18294168 -2.74509245e-20 1.75350044e-41)
(-1.10943426 -0.249994573 -1.58535217e-17 1.11392206 8.63944239e-19 -1.66969084e-41)
(-1.09760773 -0.257852821 2.27810465e-16 1.10075821 2.71890312e-16 -1.31870623e-35)
(-1.13229477 -0.272761097 1.2781357e-16 1.13478573 1.05022537e-16 -9.39131067e-33)
(-1.19833833 -0.294315759 -1.41178162e-17 1.20161035 8.31586183e-19 5.32359281e-36)
(-1.26645566 -0.322811944 7.87734098e-17 1.27039316 1.14078195e-16 -9.14470856e-34)
(-1.30887568 -0.366694334 -2.00569398e-16 1.31386378 -2.28029285e-16 1.00489113e-33)
(-1.31773513 -0.4284966 1.02383176e-16 1.32341589 1.16009743e-16 5.50208319e-36)
(-1.28351944 -0.506430909 6.16989176e-17 1.28951586 1.24258032e-16 -6.08277198e-36)
(-1.20369531 -0.595952459 -6.99211433e-17 1.20865972 -1.31304943e-16 -9.19925349e-34)
(-1.08672594 -0.693439542 1.98980267e-17 1.09051168 -6.54883054e-17 -9.38629348e-34)
(-0.949536485 -0.790395137 -9.79420218e-17 0.952150382 -2.02882651e-16 -8.31780005e-35)
(-0.797650408 -0.878256236 -9.81115514e-18 0.798835077 1.34377424e-18 5.88025084e-36)
(-0.63543533 -0.955481698 -2.62346144e-17 0.63533242 -7.2911998e-17 -7.97444493e-34)
(-0.465732997 -1.02801983 1.7823814e-15 0.467255637 7.33200694e-17 1.21801244e-33)
(-0.310720481 -1.10921806 3.81786461e-15 0.304748418 1.20032316e-14 -5.54102586e-30)
(-0.176602944 -1.30535972 -7.07434546e-16 0.175679567 1.25452201e-14 -4.58532578e-30)
(-0.111829942 -1.62921293 -1.72522563e-15 0.109931366 1.40118442e-16 -2.45382869e-46)
(-0.0977110255 -1.92436642 1.11852408e-23 0.0921718248 -8.80048996e-25 -4.58497575e-62)
(-0.0799616661 -2.15693712 2.04743143e-15 0.0755408265 -1.50697688e-16 0)
(-0.0677383688 -2.35026168 3.48987474e-15 0.06251894 1.4510506e-14 -7.10099441e-30)
(-0.0567362496 -2.50739595 -5.23610865e-16 0.0514841431 1.53059797e-14 -5.93804198e-30)
(-0.0475480006 -2.63568559 -2.0544179e-15 0.0420994622 1.40825227e-16 -5.3655741e-34)
(-0.039354686 -2.73855017 -2.08040231e-19 0.033871248 -7.48115139e-21 1.26407815e-38)
(-0.0319425054 -2.81896736 3.8980241e-20 0.0264486036 -2.46691175e-20 -2.94529594e-41)
(-0.0250666663 -2.87885226 1.14900543e-19 0.0196386984 1.51304587e-20 2.94529594e-41)
(-0.0186579139 -2.91987611 -2.36629011e-15 0.013345507 1.32321331e-16 3.74734979e-50)
(-0.0126643499 -2.94346272 -4.29323254e-15 0.00752925367 -1.71049595e-14 -7.48808429e-30)
(-0.00705022099 -2.95090016 5.03381473e-16 0.00213834463 -1.81271802e-14 -6.68676453e-30)
(-0.00179102399 -2.94332835 2.4208909e-15 -0.00285875118 -1.22392948e-16 0)
(0.00311734608 -2.92186771 3.44340381e-20 -0.00746712435 -5.01034432e-20 -4.30359833e-39)
(0.0076822787 -2.88765257 -6.50677778e-20 -0.0116919299 -2.19974693e-19 8.46334518e-39)
(0.0119110347 -2.84173447 -6.94490834e-20 -0.015549352 2.28756594e-19 -4.15974685e-39)
(0.0158082375 -2.78511582 7.25576985e-20 -0.0190500114 6.92972293e-20 4.76566761e-39)
(0.0193801947 -2.71876268 3.22210916e-15 -0.0222054014 -1.14451627e-16 -4.20721403e-34)
(0.0226356753 -2.64360087 5.15827546e-15 -0.0250292304 2.34187358e-14 -1.03820048e-29)
(0.0255851399 -2.56051421 -1.4334883e-15 -0.0275367146 2.4532634e-14 -9.84342479e-30)
(0.0282401368 -2.47034403 -3.30727613e-15 -0.0297438747 1.01019062e-16 -4.31849695e-34)
(0.0306121216 -2.37389046 -6.03492484e-20 -0.0316666004 -1.38558413e-19 0)
(0.0327109097 -2.2719176 7.9215373e-21 -0.0333188102 1.40363477e-19 3.58779899e-42)
(0.0345439817 -2.16516071 3.72861016e-15 -0.0347119182 -7.60003208e-17 -3.58779904e-42)
(0.0361161797 -2.05433356 5.27065078e-15 -0.0358546355 2.69812029e-14 -1.16321438e-29)
(0.0374292069 -1.9401366 -2.35394383e-15 -0.0367522664 2.7918105e-14 -1.14822953e-29)
(0.0384818635 -1.8232655 -3.82164766e-15 -0.037407133 5.81627315e-17 -3.99120764e-40)
(0.039271872 -1.70441618 1.19984473e-20 -0.0378199289 -2.80845193e-21 3.81206229e-40)
(0.0397994395 -1.58428236 1.32217332e-20 -0.0379935282 -2.71593136e-21 4.20997689e-40)
(0.0400729209 -1.46354107 1.87627401e-21 -0.0379375883 1.65773166e-19 -4.03083154e-40)
(0.0401145099 -1.34282197 -1.03724854e-20 -0.0376746794 -6.77375949e-20 9.37428397e-44)
(0.0399588072 -1.22267034 9.12324813e-22 -0.0372392766 2.36916512e-20 -9.37428397e-44)
(0.0396447861 -1.10352951 -7.49334011e-22 -0.0366682256 -1.21830261e-21 9.85039019e-44)
(0.0391987211 -0.985750949 1.87184933e-20 -0.0359895786 -4.63498331e-20 -9.85039019e-44)
(0.038625605 -0.869660191 -1.49174415e-20 -0.0352050747 1.87576731e-19 1.62596519e-42)
(0.0379200708 -0.755596394 -1.73343559e-20 -0.034312929 -3.05533119e-21 -1.62596521e-42)
(0.0370887014 -0.643913495 1.4420842e-20 -0.0333138076 -1.38545956e-19 0)
(0.036158637 -0.534909334 0 -0.0322387825 1.01800021e-19 0)
(0.0351580089 -0.428801003 9.66995121e-34 -0.0311099016 -3.95157766e-19 0)
(0.034105759 -0.325751468 0 -0.0299474666 2.95007847e-19 0)
(0.0330048316 -0.225890027 -1.14883029e-33 -0.0287536402 -3.04621027e-19 0)
(0.0318405709 -0.129371429 0 -0.0275150603 -3.79966916e-21 0)
(0.0306012336 -0.0364017865 6.6829497e-20 -0.0262231771 -3.17498207e-19 0)
(0.0292964549 0.0528110743 -5.5941976e-15 -0.024885538 -1.69721353e-16 7.30442218e-34)
(0.0279532964 0.138119322 -1.14848389e-14 -0.0235193404 -3.94429957e-14 -1.82809926e-29)
(0.0265994701 0.219453426 -2.95729481e-16 -0.0221494881 -7.88339689e-14 -7.82085166e-29)
(0.0252488751 0.296802345 1.13646285e-14 -0.0207898893 -3.93048536e-14 -2.08274062e-29)
(0.0238945951 0.37015725 5.7719319e-15 -0.0194313678 2.20615285e-16 -7.53694232e-34)
(0.0225110163 0.439460274 2.10360667e-19 -0.0180511304 -1.11679281e-18 2.73714567e-38)
(0.0210658114 0.504560757 6.99837109e-20 -0.0166153715 -1.77942447e-19 -9.10280391e-39)
(0.0195222766 0.565221757 -5.94623347e-15 -0.0150909355 -2.86513109e-16 7.76398052e-34)
(0.0178332681 0.62108566 -5.86565884e-15 -0.0134281366 -4.22064487e-14 -1.90059919e-29)
(0.0159311848 0.671645956 6.1666326e-15 -0.0115654263 -4.15650191e-14 -2.15472596e-29)
(0.0137382323 0.716162452 6.05139989e-15 -0.00941878647 3.23731078e-16 7.90140073e-34)
(0.0111456285 0.753674295 7.58427664e-20 -0.00689485904 9.20053208e-19 0)
(0.0080468596 0.782819519 -1.59801207e-19 -0.00386417772 1.03590252e-18 -3.02827807e-42)
(0.00429684602 0.801989856 -2.87568816e-19 -0.000222123932 -1.9821118e-18 3.02827807e-42)
(-0.000139368449 0.808942303 3.1076218e-19 0.0041505301 9.66254396e-19 3.05186039e-42)
(-0.00551151154 0.801472103 1.3894551e-19 0.00929943291 -3.40138778e-18 -3.05186039e-42)
(-0.0117033014 0.77603968 -1.50689547e-19 0.0155258084 2.45736784e-18 0)
(-0.0192732692 0.730778623 1.55888049e-19 0.0226449776 2.52200623e-18 0)
(-0.0272844106 0.659054159 -3.21378207e-19 0.0311166929 -3.51820841e-18 4.12404864e-38)
(-0.0370967433 0.562628725 1.48413943e-20 0.0399079246 9.22407143e-19 -8.19258893e-38)
(-0.0532310019 0.425503744 3.08798379e-19 0.0554495031 8.06104058e-20 4.06854031e-38)
(-0.062073856 0.23756883 -1.98121633e-18 0.0668499732 5.020198e-17 0)
(-0.050978468 0.161293855 -5.10906363e-17 0.0478101229 4.04354708e-16 1.38082787e-33)
(-0.0693924943 0.183460717 -1.80225713e-17 0.0676544237 2.75536913e-16 0)
(-0.123900128 0.230597801 3.31143408e-17 0.116860328 -3.89441502e-16 -7.6215282e-35)
(-0.22307134 0.300446868 -2.28747657e-16 0.214302 4.88081528e-16 -1.16203553e-32)
(-0.372880781 0.37358038 -1.57021037e-16 0.361682819 5.19296152e-16 -6.93113225e-40)
(-0.581769019 0.44980581 2.74377234e-16 0.570046587 -4.98644051e-16 7.24528298e-40)
(-0.879994576 0.539421524 -3.79268932e-16 0.868469247 4.81852756e-16 2.19976079e-35)
(-1.28838978 0.645523406 3.49809741e-16 1.28168703 -5.00440866e-16 -3.64419e-33)
(-1.82513619 0.768635561 3.32822363e-16 1.82637235 -4.76126584e-16 7.80907031e-33)
(-2.48777494 0.906579985 -4.46494496e-16 2.50255332 6.63422882e-16 -4.85996631e-34)
(-3.2547494 1.06049334 5.73706705e-16 3.28489405 -6.52167809e-16 0)
(-4.05047921 1.225265 -2.8562273e-16 4.09892131 4.58967378e-16 0)
(-4.84902986 1.37702254 -3.34043793e-16 4.90983703 4.52175318e-16 -3.38754688e-33)
(-5.68334003 1.50596963 -4.06123075e-16 5.7573888 4.34370597e-16 -3.32952496e-33)
(-6.60651055 1.61308278 -4.60883896e-16 6.69802174 4.13147412e-16 -3.25735005e-33)
(-7.69435504 1.70349412 -8.78575956e-16 7.80932643 1.02576239e-15 1.74359095e-32)
(-9.06699769 1.79176006 3.08289243e-16 9.21900578 -3.68565348e-16 -3.00547462e-33)
(-10.9390008 1.97746784 1.44768142e-16 11.1450978 2.75737866e-16 -2.21134345e-32)
(-13.2903478 2.54397587 -1.86017144e-16 13.5829903 3.31956886e-16 0)
(-15.9290806 3.79680975 2.07767132e-16 16.3123638 -2.85326543e-16 0)
(-18.6334941 6.19302015 1.76837639e-16 19.0971511 2.41587708e-16 -3.02516451e-34)
(-20.4953396 10.280132 1.25941285e-16 21.0227759 4.90994887e-16 -1.95470545e-34)
(-19.5868134 16.1522814 -3.12375424e-16 20.032289 -2.05727063e-16 2.95088538e-34)
(-13.342423 20.6297661 9.37586838e-17 13.6130225 1.27130236e-17 1.38663514e-34)
(-6.09608445 19.2810041 -3.8386306e-18 6.05334979 5.49837139e-20 0)
(-1.66376933 13.5540553 3.47148128e-19 1.62827807 -1.41635445e-17 0)
(-0.41282448 8.9591528 0 0.347670081 2.80126024e-21 0)
(-0.112653984 8.91889804 1.09029131e-19 0.104637392 1.04845144e-21 0)
(0.18237698 8.33502782 -5.87974547e-18 -0.228018073 1.98711386e-19 -1.72563166e-36)
(0.861101875 6.60092701 -1.76468998e-15 -0.829791545 -1.45019992e-17 0)
(0.659891484 2.86921537 -7.34995166e-15 -0.678776914 -3.38489199e-14 4.24975932e-30)
(-1.02618616 -0.265931884 -2.60768392e-14 1.03633642 -3.67061378e-14 2.1966774e-30)
(-1.95087112 -0.934875767 2.52665045e-15 1.95467251 6.26527633e-18 -6.97925088e-36)
(-1.82351961 -0.650391075 -9.01292319e-18 1.83593718 -5.13152813e-20 0)
(-1.7184989 -0.425824528 9.70065992e-17 1.72215149 1.35928497e-16 3.14817494e-37)
(-1.55841557 -0.312838894 -3.28504503e-14 1.56375165 -3.90246229e-14 -8.00936545e-36)
(-1.38601404 -0.266115405 -3.40383599e-14 1.3883213 -4.01202022e-14 -1.01661761e-35)
(-1.21708358 -0.251596699 1.13620923e-16 1.21964729 1.52647941e-16 1.20869331e-36)
(-1.11197553 -0.245412331 -1.32119461e-19 1.11353891 -1.46800516e-19 -6.1547814e-40)
(-1.0591245 -0.243238193 1.63443325e-17 1.06011382 -8.66980386e-19 0)
(-1.05507142 -0.245888323 1.39318671e-17 1.05568517 -7.25192006e-18 1.55448139e-35)
(-1.09078984 -0.255452143 -3.84668422e-16 1.09105748 -4.90324794e-16 8.33734395e-33)
(-1.15008511 -0.272444969 2.44482722e-19 1.15080424 3.26790532e-19 5.0656596e-41)
(-1.20812666 -0.298461672 -2.5263158e-16 1.208687 -3.33680221e-16 -4.88491674e-41)
(-1.24178318 -0.340666721 -2.08746842e-19 1.24270028 -1.09904859e-18 0)
(-1.2440933 -0.400589817 1.23645096e-16 1.24516929 1.73948774e-16 0)
(-1.20852837 -0.476873273 -1.19551076e-16 1.20985037 -1.78546374e-16 0)
(-1.13589225 -0.565699413 9.24006899e-17 1.13670876 1.87552153e-16 0)
(-1.03291609 -0.663637125 -5.08113929e-17 1.03364622 5.13326106e-18 -1.0275735e-34)
(-0.911426445 -0.763191084 -9.21687897e-17 0.91211207 -2.04697982e-16 8.58402062e-35)
(-0.776364174 -0.858588775 -5.76522389e-17 0.776597802 -2.07829389e-16 4.04725812e-40)
(-0.631111757 -0.949271198 -3.76630669e-17 0.630868173 -2.18078019e-16 1.52187175e-33)
(-0.478223105 -1.04035156 3.24989699e-17 0.480345551 6.37181322e-18 -1.54553931e-33)
(-0.348304978 -1.15833219 -2.15704478e-15 0.342051759 -1.68609236e-14 -5.79957618e-32)
(-0.228667252 -1.35455113 -6.17729208e-16 0.228292107 -1.6688035e-14 -3.00706911e-36)
(-0.167522185 -1.59623939 -4.58389271e-20 0.166966607 3.73667347e-21 -7.3749873e-48)
(-0.14410933 -1.8004993 -1.10191699e-23 0.140272404 -4.05390621e-19 0)
(-0.116577127 -1.95771756 -1.00187957e-33 0.114444403 3.98377681e-19 0)
(-0.0970846964 -2.07935576 0 0.0944550844 -1.98494282e-14 0)
(-0.0799735047 -2.17163427 0 0.0776116032 -1.99177753e-14 0)
(-0.0656948258 -2.24025032 0 0.0633427563 -1.36429284e-18 0)
(-0.0530425352 -2.28854117 0 0.0508102554 8.89676251e-19 0)
(-0.0416506937 -2.31907725 0 0.0395056627 7.59704079e-20 0)
(-0.0311609875 -2.33375522 1.90816648e-33 0.0291343462 -7.95702921e-20 0)
(-0.0214526976 -2.33420446 2.75614388e-20 0.0195515723 -1.53894745e-21 0)
(-0.0124323399 -2.321821 2.17151021e-20 0.0106786071 2.29402026e-14 -7.00385427e-42)
(-0.00403230339 -2.29781207 -4.73535309e-20 0.00242836955 2.34697231e-14 7.00385427e-42)
(0.00378961005 -2.26321558 4.73665877e-20 -0.00522707607 1.00745731e-20 -7.6858489e-42)
(0.0110355673 -2.21914017 -7.86574231e-20 -0.0122825322 -6.74787011e-20 7.6858489e-42)
(0.0177207786 -2.16663624 2.93678255e-20 -0.0187667523 -2.60173026e-19 0)
(0.0238721178 -2.10659535 3.35265845e-20 -0.0247127765 5.43767862e-20 0)
(0.0295063673 -2.03984131 4.77461085e-20 -0.0301394304 8.87210316e-19 -4.36201373e-39)
(0.0346397236 -1.9671376 -6.92861653e-20 -0.0350657833 -9.63016626e-19 8.58979911e-39)
(0.0392908058 -1.8891898 -4.66553151e-20 -0.0395129917 -3.12367405e-14 -4.22778538e-39)
(0.0434796008 -1.8066499 3.46687874e-20 -0.0435032719 -3.20636561e-14 0)
(0.0472265943 -1.72012124 0 -0.0470589484 -3.78047575e-19 0)
(0.0505511753 -1.63016431 0 -0.0502011052 0 0)
(0.053469755 -1.53730376 0 -0.0529474129 4.61924849e-20 0)
(0.0559949963 -1.44203536 2.15290147e-20 -0.0553115188 -3.67116319e-14 0)
(0.0581354792 -1.34483238 -4.32099413e-21 -0.0573028854 -7.40820483e-14 5.42462855e-42)
(0.0598952128 -1.24615199 -5.02183996e-20 -0.0589260663 -3.70502121e-14 -5.42462855e-42)
(0.0612742828 -1.14644065 1.36576947e-20 -0.0601817002 -6.81057309e-20 -3.67153938e-40)
(0.0622717168 -1.04613666 1.16253819e-20 -0.0610690014 1.82888465e-19 3.50642294e-40)
(0.062890759 -0.945667323 1.28520899e-20 -0.0615915992 2.45261703e-21 3.89117465e-40)
(0.0631467651 -0.845438796 6.96792666e-21 -0.06176457 -1.18158754e-19 -3.72605822e-40)
(0.0630742412 -0.745817598 -1.20927143e-20 -0.0616221358 3.20363905e-20 0)
(0.06272388 -0.647112257 0 -0.0612149546 -3.20863705e-20 0)
(0.0621502374 -0.549568116 0 -0.0605955715 3.34262297e-20 0)
(0.061388095 -0.453381378 1.39197315e-20 -0.0598005518 -3.34725916e-20 0)
(0.0604425683 -0.35874341 3.99748745e-21 -0.0588305164 -1.34508626e-19 -4.45427611e-40)
(0.0593059463 -0.265860798 -2.86987151e-20 -0.0576809123 1.39631597e-19 8.89011143e-40)
(0.0579887596 -0.174951731 -3.53060628e-21 -0.056355817 -4.94894893e-21 -4.43583533e-40)
(0.0565291853 -0.0861986564 -1.59526408e-20 -0.0548990236 -2.7925582e-22 0)
(0.0549657199 0.000256540474 2.65010031e-20 -0.0533438294 -2.5245276e-19 1.12133415e-41)
(0.0533238759 0.0843002829 2.77172561e-21 -0.0517192523 5.56618278e-14 -1.12133415e-41)
(0.0516068814 0.165833812 -3.31245615e-20 -0.0500318328 5.66574433e-14 -2.00443752e-39)
(0.0497937184 0.24474074 -7.37378503e-22 -0.0482614008 -2.5604866e-19 -9.581503e-41)
(0.0478688096 0.320873064 6.59037719e-20 -0.0463788345 5.16706721e-19 6.20068597e-39)
(0.0458472216 0.394083705 3.44601582e-20 -0.0443987437 -1.15023671e-18 -4.10043342e-39)
(0.0437672674 0.46426489 -6.55099756e-20 -0.0423586539 5.42351534e-14 0)
(0.04166752 0.531351497 6.8168485e-20 -0.0402953421 1.10289395e-13 0)
(0.0395661574 0.59531073 -3.20604728e-21 -0.038232958 5.59577057e-14 -8.67079533e-39)
(0.0374515867 0.656105137 -1.37905165e-19 -0.0361574823 1.89936051e-18 1.72218049e-38)
(0.0352856947 0.713660676 -6.53426976e-20 -0.0340326992 -5.75198227e-19 -8.55100953e-39)
(0.0330202319 0.767839369 1.45391718e-19 -0.0318082181 -7.00111899e-19 -1.25893222e-41)
(0.0305997297 0.818439351 -8.25429618e-21 -0.0294319986 -6.69958488e-19 1.25893222e-41)
(0.027952398 0.865170938 -6.1172535e-20 -0.0268288423 5.76467708e-14 -8.98974242e-39)
(0.0249759766 0.907630131 1.42850881e-19 -0.023902731 5.86671344e-14 1.7894244e-38)
(0.0215505038 0.945243414 1.35669105e-19 -0.0205264344 -6.70396324e-19 -8.90450155e-39)
(0.0175104367 0.977251771 -9.2284468e-20 -0.0165516121 4.57013056e-20 -3.67920372e-38)
(0.0126876249 1.00260871 -2.9207831e-19 -0.0117852775 -1.45527043e-18 7.33783008e-38)
(0.00685237483 1.0200141 2.1795268e-20 -0.00604444438 1.56539115e-19 -3.65862636e-38)
(-0.000114775912 1.02767451 -3.93755522e-21 0.000893170167 3.95325338e-18 0)
(-0.00857245498 1.02322465 1.73447282e-19 0.00914737432 -4.03181225e-18 8.18995914e-41)
(-0.0183931114 1.00406858 2.80918423e-19 0.0190337811 1.35325797e-18 -8.18995914e-41)
(-0.030416189 0.967793415 -3.24460813e-19 0.0305583197 3.00646583e-20 1.65797268e-40)
(-0.0435102891 0.909362009 -1.33686784e-19 0.0441519146 -1.57493106e-18 -1.65797268e-40)
(-0.0598863741 0.827051242 1.54087509e-19 0.0593176636 3.05404966e-18 0)
(-0.0837878419 0.707565691 5.18911278e-18 0.0823875199 -2.51735562e-18 0)
(-0.109395072 0.557662911 4.49263717e-17 0.111764799 -8.54115479e-17 3.42942497e-35)
(-0.140877687 0.492350808 1.55260747e-17 0.137241423 -1.71794837e-16 -2.07622525e-33)
(-0.202934849 0.498533991 -1.62927984e-16 0.204432139 3.59589642e-16 -1.07655342e-35)
(-0.302462217 0.525881024 1.24317437e-16 0.301283339 -4.05057669e-16 7.35360642e-35)
(-0.433061682 0.56273006 -7.92962036e-16 0.432854913 2.17627951e-15 3.15655086e-32)
(-0.602586289 0.600793969 -5.59602899e-20 0.602014153 1.39907394e-19 0)
(-0.816198849 0.643765061 2.30803995e-19 0.816632734 -1.24727234e-19 0)
(-1.09428623 0.702440923 -3.942466e-16 1.09466993 6.41307845e-16 -1.04484186e-39)
(-1.44912549 0.780926053 -5.34606502e-17 1.45157869 7.65208512e-17 1.094215e-39)
(-1.89263239 0.877539043 4.91073611e-16 1.89655175 -6.09696937e-16 1.01042536e-32)
(-2.42133764 0.987284812 -6.14652658e-16 2.42861505 6.69142593e-16 5.12023755e-34)
(-3.02351096 1.10748595 -6.66811637e-19 3.0328947 1.2504683e-17 -1.11791927e-32)
(-3.66174242 1.23583926 7.1267179e-17 3.67721002 4.71817149e-18 0)
(-4.33080124 1.3593218 4.97003017e-16 4.34801187 -6.43948833e-16 -2.27110656e-40)
(-5.04362056 1.47128807 9.40078158e-16 5.06283464 -1.20577334e-15 2.36658195e-40)
(-5.83403535 1.57257623 5.40338724e-16 5.85717516 -6.09763876e-16 0)
(-6.75543979 1.66964748 3.38509846e-16 6.78372731 -5.92512086e-16 -9.92343022e-33)
(-7.88626165 1.78142187 -4.77731942e-16 7.92418638 5.58379758e-16 0)
(-9.34153156 1.98828165 -1.01998949e-15 9.38642598 9.59302225e-16 9.65542106e-33)
(-11.0798049 2.50512988 -4.59615259e-17 11.1500803 -1.07033526e-18 -4.94368142e-42)
(-12.9628576 3.55978257 2.21082526e-17 13.0617455 1.73636973e-20 5.10933009e-42)
(-14.7208856 5.44767199 -4.55415094e-16 14.8375169 1.55935942e-16 2.9162505e-34)
(-15.6764722 8.44754983 -4.30114421e-16 15.8323614 1.51378818e-17 1.88747771e-34)
(-14.8015298 12.5834371 7.92257335e-16 14.9635627 3.44893555e-16 -9.4885498e-34)
(-10.9396429 16.6349477 -2.25998205e-16 11.1738159 -8.01164686e-17 4.28128467e-35)