/*--------------------------------*- C++ -*----------------------------------*\
| =========                 |                                                 |
| \\      /  F ield         | OpenFOAM: The Open Source CFD Toolbox           |
|  \\    /   O peration     | Version:  2506                                  |
|   \\  /    A nd           | Website:  www.openfoam.com                      |
|    \\/     M anipulation  |                                                 |
\*---------------------------------------------------------------------------*/
FoamFile
{
    version     2.0;
    format      ascii;
    arch        "LSB;label=32;scalar=64";
    class       volSymmTensorField;
    location    "2644";
    object      Tij10;
}
// * * * * * * * * * * * * * * * * * * * * * * * * * * * * * * * * * * * * * //

dimensions      [0 0 0 0 0 0 0];

internalField   nonuniform List<symmTensor> 
15600
(
(-6.88445843e-19 4.59137201e-16 5.16542906e-36 -1.58581722e-18 -6.91755692e-38 -1.35576702e-57)
(3.77134973e-17 7.16527509e-16 2.98947133e-34 -3.16961789e-17 -1.58894834e-34 -1.28624891e-52)
(2.25003604e-17 1.10689123e-16 3.51174912e-35 -2.41178793e-17 -8.39421554e-36 -2.8997119e-54)
(1.22366628e-23 2.91943297e-23 6.22736492e-37 6.28080871e-24 4.26616225e-36 -9.03005728e-50)
(-2.77307234e-18 -2.42053131e-18 2.4143784e-32 3.02841854e-18 5.73147537e-32 4.52492813e-47)
(-4.02427088e-18 -2.12192e-18 -8.8952726e-35 4.25453829e-18 -2.40003073e-34 4.97309948e-51)
(-1.30931192e-18 -4.42790168e-19 -3.88622392e-35 1.3543763e-18 -5.14459882e-35 -1.7806904e-52)
(-9.09564716e-19 -2.20657998e-19 2.1943344e-34 9.46000419e-19 -9.53198962e-34 9.60443509e-49)
(-6.66569588e-19 -1.28133137e-19 3.12765172e-33 6.8983093e-19 4.99773035e-33 1.23788993e-47)
(-5.15656713e-19 -9.35231787e-20 2.67054584e-33 5.33238571e-19 5.7692126e-33 3.69323566e-47)
(-4.1010349e-19 -8.01406585e-20 -1.48719822e-34 4.20609382e-19 6.58740357e-34 1.03042477e-48)
(-4.09131643e-19 -8.83175054e-20 6.20346208e-39 4.17316035e-19 1.01494958e-38 8.38185795e-59)
(-4.83948211e-19 -1.12367443e-19 1.20582479e-36 4.90895054e-19 -4.19803378e-36 3.5783065e-53)
(-7.05108071e-19 -1.72362981e-19 -1.31800362e-34 7.12072524e-19 -1.7871009e-34 3.81705848e-51)
(-1.24291709e-18 -3.15401521e-19 1.73000069e-34 1.2524142e-18 2.50591091e-34 7.98237314e-51)
(-2.47470712e-18 -6.45441746e-19 4.69833565e-37 2.49303474e-18 -2.87635069e-36 3.29000874e-54)
(-4.86471703e-18 -1.3196095e-18 1.00239685e-34 4.91324065e-18 3.1076434e-34 1.31898205e-50)
(-8.88055505e-18 -2.62921603e-18 3.50475579e-34 8.98325179e-18 3.65055401e-34 -6.83765121e-51)
(-1.49490126e-17 -5.0825061e-18 -7.75586227e-34 1.51447635e-17 -1.70325615e-33 8.25830238e-50)
(-2.24813634e-17 -9.14459296e-18 -1.61750638e-33 2.27853437e-17 -1.75904106e-33 -7.06346193e-50)
(-2.95471471e-17 -1.48837632e-17 -6.64036062e-34 2.99267808e-17 -1.56201751e-33 2.53396984e-50)
(-3.49190268e-17 -2.24128038e-17 1.08055813e-33 3.52379555e-17 1.74743008e-33 -1.10560855e-50)
(-3.82679217e-17 -3.1765737e-17 3.46541484e-33 3.84364321e-17 8.62742454e-33 1.9651628e-49)
(-3.77645673e-17 -4.11636362e-17 -2.95821923e-34 3.77425849e-17 1.99957562e-34 9.86247922e-52)
(-3.31907713e-17 -4.90992634e-17 3.03770164e-33 3.2943633e-17 9.90178397e-33 -9.90917605e-52)
(-2.65412726e-17 -5.68396748e-17 6.09612103e-32 2.58365258e-17 -2.87231885e-32 3.18995946e-47)
(-1.62527129e-17 -6.07950927e-17 8.19035366e-32 1.60930187e-17 3.15340245e-31 -4.12412247e-46)
(-1.4073737e-17 -1.23653013e-16 -1.39860731e-31 1.19021538e-17 5.1785474e-31 1.3878731e-45)
(-2.08521104e-17 -4.96317482e-16 -3.61383146e-31 1.28252448e-17 -1.99441432e-32 -3.57708942e-47)
(-4.04153705e-17 -1.43187927e-15 2.70687503e-39 2.65359128e-17 1.624497e-40 -7.08143259e-64)
(-6.63399931e-17 -2.88392358e-15 1.73531125e-30 3.83652265e-17 1.04462666e-31 -1.39475321e-46)
(-9.19572609e-17 -4.92209738e-15 1.66934931e-31 5.0653816e-17 1.19065081e-29 -2.69545144e-46)
(-1.18176676e-16 -7.39503064e-15 -7.69228499e-30 5.96178527e-17 1.48353227e-29 3.12703703e-44)
(-1.41334865e-16 -1.01890932e-14 -4.9303025e-30 6.56714718e-17 -3.02425537e-31 -3.07899873e-46)
(-1.61027236e-16 -1.31265668e-14 -2.55640045e-35 6.79186727e-17 -2.08391836e-33 -4.05843347e-54)
(-1.75184984e-16 -1.60382115e-14 -2.8295081e-35 6.63841624e-17 -2.5904189e-33 -4.57009265e-54)
(-1.83134528e-16 -1.87443282e-14 1.3682659e-34 6.10749032e-17 2.9341807e-33 -3.83513812e-53)
(-1.8430775e-16 -2.10882204e-14 -1.00148394e-29 5.25364631e-17 -5.35221999e-31 -5.20074671e-46)
(-1.79157675e-16 -2.29440142e-14 1.05233293e-30 4.15253351e-17 -4.50557004e-29 4.82369595e-45)
(-1.68286517e-16 -2.42275205e-14 2.42576823e-29 2.89279994e-17 -4.43295559e-29 8.93031478e-44)
(-1.52726065e-16 -2.48952032e-14 1.19552918e-29 1.56465808e-17 5.97651633e-31 -5.77532268e-46)
(-1.33630238e-16 -2.49467928e-14 -3.87620224e-34 2.57065152e-18 6.07685265e-34 1.89629406e-53)
(-1.12462168e-16 -2.44200828e-14 1.06493821e-34 -9.53591924e-18 1.67394178e-33 -1.40712315e-53)
(-9.0598132e-17 -2.33829042e-14 -1.09400243e-34 -2.00719577e-17 -3.85866784e-33 -3.3639166e-53)
(-6.92436573e-17 -2.19248996e-14 -7.28260352e-35 -2.86260989e-17 -6.80800984e-34 -4.45565313e-54)
(-4.9384931e-17 -2.01481609e-14 1.31757177e-29 -3.49898266e-17 4.95272332e-31 -6.32768045e-46)
(-3.17462438e-17 -1.81582066e-14 2.30563545e-30 -3.91392724e-17 5.03422774e-29 -1.25398093e-44)
(-1.6782533e-17 -1.60563955e-14 -2.01463212e-29 -4.12011625e-17 4.46227814e-29 1.12173204e-43)
(-4.69883953e-18 -1.3934115e-14 -1.01889449e-29 -4.14136632e-17 -3.40132311e-31 -4.75279442e-46)
(4.51619936e-18 -1.18688471e-14 -2.7314148e-35 -4.00853709e-17 5.61415061e-34 2.57410824e-54)
(1.10390438e-17 -9.92210184e-15 -7.02919106e-35 -3.7557626e-17 -1.23825474e-33 -1.77144943e-53)
(1.51669307e-17 -8.13888658e-15 7.33098694e-30 -3.41750276e-17 1.81150391e-31 -2.98615424e-46)
(1.72737323e-17 -6.54831051e-15 2.67368149e-30 -3.02629836e-17 2.61283008e-29 -2.16061232e-44)
(1.77681766e-17 -5.16506582e-15 -8.01726584e-30 -2.61112153e-17 2.16495458e-29 6.69588532e-44)
(1.70607731e-17 -3.99149174e-15 -4.2699009e-30 -2.19637069e-17 -8.88542304e-32 -1.64973787e-46)
(1.55362504e-17 -3.0199322e-15 -1.03507577e-35 -1.80140966e-17 -3.79863937e-36 -2.58516875e-56)
(1.35357172e-17 -2.23518317e-15 4.4841678e-36 -1.44046059e-17 -2.72152289e-36 1.09571807e-56)
(1.13412372e-17 -1.61690228e-15 -6.39696473e-36 -1.12276782e-17 6.37143745e-35 4.86689176e-55)
(9.17037444e-18 -1.14186483e-15 -6.27369384e-37 -8.5292969e-18 2.13685381e-35 2.02706926e-56)
(7.17253477e-18 -7.86015621e-16 2.69225528e-36 -6.31336446e-18 4.40515507e-36 -3.03260079e-56)
(5.43161299e-18 -5.26244121e-16 -2.12199725e-36 -4.55031262e-18 -1.11132742e-35 -9.19652495e-56)
(3.98219099e-18 -3.41642848e-16 1.01195191e-36 -3.18796955e-18 1.90906179e-35 -1.25486037e-55)
(2.81937213e-18 -2.14249949e-16 4.36015306e-37 -2.16459753e-18 1.48248526e-35 -7.38193697e-56)
(1.92209707e-18 -1.29180033e-16 -2.69684568e-37 -1.41861137e-18 -1.50916659e-35 -8.92255683e-56)
(1.2558443e-18 -7.4455221e-17 6.78797878e-37 -8.93199061e-19 -4.70823736e-40 8.28082222e-59)
(7.82971517e-19 -4.07079342e-17 -3.74163437e-37 -5.37286803e-19 -4.3623679e-36 -8.91161417e-56)
(4.62028114e-19 -2.08856193e-17 -2.79343901e-37 -3.06310866e-19 2.56032837e-36 6.15800066e-56)
(2.55170411e-19 -9.90177776e-18 1.35280214e-37 -1.63550292e-19 -1.68893836e-40 3.5127563e-59)
(1.29527903e-19 -4.24082279e-18 0 -8.03121991e-20 0 0)
(5.87946765e-20 -1.58565742e-18 0 -3.52665552e-20 0 0)
(2.28345396e-20 -4.89841048e-19 0 -1.32408921e-20 0 0)
(7.01117938e-21 -1.13208638e-19 -1.37904632e-33 -3.92571749e-21 -5.55840876e-36 4.46135033e-49)
(1.43881083e-21 -1.5841661e-20 -4.43737719e-34 -7.76517292e-22 -1.38446965e-33 -8.7550471e-47)
(1.22176483e-22 -7.35451292e-22 4.10490794e-35 -6.34068449e-23 -2.44487195e-34 1.37902269e-47)
(1.99484966e-25 -2.29840747e-25 2.60458107e-37 -9.68470365e-26 -1.73580077e-37 2.95813045e-49)
(1.2993901e-23 4.59177832e-23 2.68345937e-36 -6.20075819e-24 -4.71381629e-37 -3.39886946e-50)
(3.29069905e-22 2.67668878e-21 2.56663593e-40 -1.50674244e-22 8.87007571e-39 -1.89806141e-57)
(1.73965445e-21 2.19670566e-20 1.71027501e-39 -7.59420747e-22 2.21797884e-38 1.68016675e-57)
(5.17378557e-21 8.81384099e-20 -1.2052621e-33 -2.13887738e-21 8.79872031e-35 -2.00872166e-48)
(1.12916159e-20 2.4163977e-19 -3.4220542e-33 -4.37871601e-21 -1.24724897e-32 3.2378652e-46)
(2.01555609e-20 5.19345856e-19 3.73800979e-33 -7.21428431e-21 -2.50935705e-32 -4.07685243e-46)
(3.09233911e-20 9.35385885e-19 7.96916728e-33 -9.95803589e-21 -5.100209e-34 -7.97399407e-48)
(4.1846051e-20 1.46213474e-18 1.81524046e-37 -1.15362462e-20 1.45365875e-36 3.19686832e-55)
(5.01150516e-20 2.0141497e-18 5.2855941e-38 -1.07318517e-20 1.767271e-36 5.41722002e-56)
(5.32005644e-20 2.45627103e-18 -9.08586701e-38 -6.65719939e-21 -4.28794419e-36 1.55096869e-55)
(4.86006338e-20 2.62649872e-18 -8.99128601e-37 2.96597572e-22 -1.17251832e-35 7.05917699e-54)
(3.8359961e-20 2.431262e-18 2.24460352e-37 8.59174295e-21 1.55977394e-35 1.30120665e-54)
(2.19379277e-20 1.8566286e-18 1.02034113e-36 1.45759641e-20 -3.7181379e-36 -4.1795016e-54)
(9.7898105e-21 1.11756596e-18 -7.26497435e-37 1.59369406e-20 -2.4304637e-36 3.1072995e-54)
(1.70405234e-22 4.41114021e-19 -1.28955646e-39 1.06011079e-20 4.09475575e-36 -3.86254941e-56)
(-4.1762177e-22 9.43607089e-20 7.25007129e-38 4.13403944e-21 -1.364661e-36 -2.01173882e-54)
(-1.62355034e-22 2.83942031e-21 -3.80208461e-39 3.70833338e-22 3.10150982e-38 -6.38774995e-56)
(-1.40324348e-23 -9.99210446e-23 -1.43942236e-40 1.44343055e-23 3.32527538e-41 6.60647449e-59)
(1.27846259e-21 -4.95567692e-21 8.3118246e-37 -1.18390019e-21 1.59233328e-37 -2.01857245e-53)
(5.9884362e-22 -1.72901122e-21 4.50753516e-37 -8.43998264e-22 -3.92397267e-36 -8.39190969e-52)
(3.99617392e-23 -9.4888559e-23 -2.45086392e-38 -7.44700167e-23 6.10793729e-37 -1.00359373e-51)
(-1.44989318e-24 7.50016325e-25 4.70117027e-38 3.18814722e-25 -3.41341841e-38 -1.38800841e-51)
(-3.70618984e-21 2.47811148e-21 5.39261631e-36 2.73231568e-21 -1.17621223e-35 7.31022698e-51)
(-1.0539778e-19 6.04897111e-20 -9.06629649e-35 9.03539031e-20 1.38060552e-34 -1.88155323e-50)
(-1.21804469e-18 5.90983236e-19 5.80530827e-34 1.12798374e-18 -8.76994342e-34 -2.6168031e-50)
(-9.03016819e-18 3.73992475e-18 8.05523873e-34 8.72900989e-18 -2.55431533e-33 4.07959722e-49)
(-4.87643987e-17 1.77748862e-17 -9.09316361e-33 4.86006015e-17 1.50102729e-32 7.8789708e-49)
(-1.99628967e-16 6.58920959e-17 4.08236342e-32 2.02885318e-16 -5.29391942e-32 -1.41511233e-48)
(-6.29150294e-16 1.95262096e-16 2.98132743e-33 6.48346537e-16 7.80086484e-33 9.3279021e-50)
(-1.45627774e-15 4.36144222e-16 1.18960077e-31 1.50768879e-15 -1.49659056e-31 -1.78065026e-48)
(-2.54215668e-15 7.34755817e-16 -5.95195231e-32 2.63887976e-15 1.10051587e-31 1.63002183e-48)
(-3.77193735e-15 1.03714244e-15 -7.11373538e-32 3.92433792e-15 1.38316218e-31 2.00864623e-48)
(-5.14723902e-15 1.32411446e-15 -7.80266765e-32 5.36785346e-15 1.60938373e-31 2.29330632e-48)
(-6.82872907e-15 1.61654377e-15 2.83456128e-31 7.14627532e-15 -3.8387469e-31 1.56181688e-48)
(-9.33497943e-15 2.00159044e-15 6.37459696e-32 9.81886117e-15 -2.75546221e-31 6.256713e-48)
(-1.48528932e-14 2.99722936e-15 6.07411948e-31 1.57801791e-14 -8.92055272e-31 1.12967234e-47)
(-2.79105509e-14 6.0794047e-15 4.88918713e-31 2.98787939e-14 -6.52113838e-31 9.76190495e-49)
(-5.64838578e-14 1.52239008e-14 -6.93573902e-31 6.07494768e-14 8.32850784e-31 -2.08338296e-48)
(-1.2737071e-13 4.72394635e-14 4.04201457e-31 1.3779473e-13 -3.78677281e-31 -9.45748915e-49)
(-2.99817237e-13 1.65133346e-13 2.34031367e-30 3.24936472e-13 -4.08247264e-30 4.95415443e-49)
(-5.77586977e-13 5.21618421e-13 -3.39454475e-31 6.25327327e-13 4.96943818e-31 -1.66442583e-49)
(-3.68474958e-13 6.19360695e-13 -2.48267552e-30 3.87400707e-13 -1.79532857e-31 -3.46498237e-48)
(-4.33800968e-14 1.59690493e-13 -2.26143537e-32 4.48072606e-14 -6.6847914e-33 9.94913687e-52)
(-9.02057563e-16 9.89677798e-15 -3.48493755e-34 7.97556771e-16 5.23700011e-33 -1.16366133e-52)
(-6.93659689e-18 6.46174114e-16 2.83334684e-35 1.14598746e-17 6.46343131e-37 3.46487678e-56)
(-4.46714395e-14 8.16655629e-12 1.42686232e-34 9.48604853e-15 3.72531484e-34 1.31077318e-56)
(3.61777887e-13 8.25273339e-12 3.56260576e-30 -2.75931005e-13 3.76298305e-30 3.22035383e-48)
(2.74283417e-13 1.91191453e-12 -5.75006576e-28 -3.16016305e-13 1.03490567e-28 -3.36709404e-44)
(4.04506446e-16 2.53588611e-15 -4.8781203e-30 -5.23856517e-16 -5.28236359e-29 2.8701189e-44)
(-3.79594546e-15 -2.09426752e-15 -3.7138275e-29 3.44464799e-15 -9.24225439e-29 7.61489565e-43)
(-1.49921166e-14 -6.85751014e-15 6.53674981e-30 1.43911455e-14 -1.24279446e-29 1.07118634e-44)
(-6.15631996e-15 -1.89807908e-15 1.94976917e-31 5.90140761e-15 2.48996767e-31 -6.75071314e-49)
(-4.38744153e-15 -9.3394898e-16 -1.86604856e-30 4.25021411e-15 6.88593032e-30 1.11290321e-44)
(-3.34488562e-15 -5.58248243e-16 4.89855339e-29 3.23615946e-15 5.40675184e-29 -8.4805169e-44)
(-2.69275316e-15 -4.34562688e-16 4.84265471e-29 2.62311622e-15 4.11616991e-29 -4.58023597e-43)
(-2.26374548e-15 -4.08160914e-16 1.24964129e-30 2.21326062e-15 -5.64964992e-30 1.44030497e-44)
(-2.34883638e-15 -4.75085649e-16 -2.90100268e-35 2.30951629e-15 -5.52206299e-35 6.54216568e-55)
(-2.88272223e-15 -6.32540017e-16 1.0978635e-32 2.84805091e-15 -3.91830614e-32 5.37360903e-49)
(-4.30216815e-15 -9.92320803e-16 7.43342137e-31 4.2653581e-15 1.17474927e-30 9.55377247e-47)
(-7.61839942e-15 -1.81003761e-15 7.36528277e-31 7.56836574e-15 7.97100766e-31 -2.28184084e-47)
(-1.48736931e-14 -3.59167007e-15 5.08665632e-32 1.47525973e-14 -1.66115198e-31 1.86356783e-48)
(-2.84313759e-14 -7.11180793e-15 2.3675987e-30 2.81680307e-14 2.07277448e-30 -1.23963309e-46)
(-5.06308531e-14 -1.38795688e-14 -7.0296026e-30 5.00569601e-14 -9.29341494e-30 3.14645045e-47)
(-8.33319829e-14 -2.64943553e-14 5.04062052e-30 8.22648742e-14 8.32551626e-30 1.93483913e-46)
(-1.23749292e-13 -4.77662228e-14 9.06134584e-30 1.22033834e-13 9.82377652e-30 -3.78601371e-46)
(-1.64102983e-13 -7.98453287e-14 -1.41456365e-29 1.62092781e-13 -1.50832518e-29 -8.84677163e-46)
(-1.99843501e-13 -1.25833169e-13 -9.40823166e-30 1.9777322e-13 -4.94520978e-30 -4.39462357e-46)
(-2.27862816e-13 -1.87840733e-13 -1.55838221e-29 2.25994544e-13 -5.30189364e-29 3.17167833e-45)
(-2.3786912e-13 -2.60619219e-13 2.4606273e-30 2.36813545e-13 -1.69248181e-30 1.14144149e-47)
(-2.25959277e-13 -3.39941723e-13 -1.44371036e-30 2.2606911e-13 -2.89691757e-29 9.64469977e-46)
(-1.97856439e-13 -4.32387045e-13 -6.92501091e-28 1.95934018e-13 3.47041539e-28 6.10015528e-43)
(-1.52812566e-13 -5.7899874e-13 2.11731067e-28 1.62151323e-13 6.66020007e-27 1.42722085e-41)
(-1.6102192e-13 -1.20910808e-12 3.31413325e-27 1.63587551e-13 1.15287962e-26 -4.89086603e-41)
(-2.33389392e-13 -3.58239303e-12 3.82776335e-27 2.45912442e-13 4.78720897e-29 -3.81307954e-43)
(-3.50262453e-13 -8.31123705e-12 -4.84999194e-35 4.22022445e-13 -1.34877986e-36 -3.00389808e-59)
(-4.55208703e-13 -1.47200205e-11 -1.40112332e-26 5.45711853e-13 -5.10675329e-28 -1.46436834e-42)
(-5.01723255e-13 -2.26404944e-11 -2.86317914e-27 6.52552581e-13 1.40186076e-25 5.46467351e-41)
(-5.12055186e-13 -3.13289339e-11 4.77618916e-26 7.08914783e-13 1.90491103e-25 -5.63326954e-40)
(-4.76556568e-13 -4.02526812e-11 3.14119091e-26 7.26180365e-13 1.58501369e-27 -2.91465212e-42)
(-4.08151478e-13 -4.87971493e-11 1.64118756e-30 7.01264531e-13 -1.6563298e-31 1.03516301e-50)
(-3.09653981e-13 -5.64543315e-11 -3.29126874e-30 6.39719e-13 -4.63788602e-31 -5.62273584e-50)
(-1.91544755e-13 -6.27771077e-11 2.2559312e-31 5.46630354e-13 3.35577674e-31 -2.41335658e-51)
(-6.28731852e-14 -6.74513095e-11 5.46745447e-26 4.31030354e-13 2.70783845e-27 -4.67290189e-42)
(6.54385631e-14 -7.02958245e-11 1.34813624e-26 3.02467842e-13 -4.08787417e-25 1.54571396e-40)
(1.85589645e-13 -7.12661039e-11 -1.010089e-25 1.70283531e-13 -4.37739763e-25 -1.24821133e-39)
(2.90934172e-13 -7.04341005e-11 -5.79276421e-26 4.28739272e-14 -2.89399023e-27 -4.78975517e-42)
(3.7616893e-13 -6.79887148e-11 7.56257577e-31 -7.25245933e-14 -1.16504579e-30 2.58166268e-50)
(4.37906674e-13 -6.41538071e-11 1.46797721e-30 -1.70663388e-13 -4.88434417e-30 2.21075625e-49)
(4.7594817e-13 -5.92543817e-11 3.04361575e-32 -2.48354063e-13 4.77106374e-30 -7.98667032e-51)
(4.91575545e-13 -5.36200404e-11 -2.64816908e-30 -3.04338999e-13 1.32038742e-30 1.3085916e-49)
(4.87321975e-13 -4.75636354e-11 -5.63523665e-26 -3.39043414e-13 -2.40432423e-27 -5.22213138e-42)
(4.66615209e-13 -4.13716712e-11 -2.69248861e-26 -3.54238797e-13 3.66311528e-25 4.40321324e-40)
(4.33322668e-13 -3.52906641e-11 6.49117746e-26 -3.52628466e-13 3.38811343e-25 -1.2849725e-39)
(3.91358679e-13 -2.95191954e-11 3.95080647e-26 -3.37451889e-13 1.65904311e-27 -3.83706387e-42)
(3.44386956e-13 -2.42050343e-11 6.35493211e-31 -3.12131246e-13 -1.40496584e-30 7.28151021e-50)
(2.95598245e-13 -1.94464504e-11 -3.16995901e-31 -2.79988235e-13 1.19782927e-30 3.79960979e-50)
(2.47606808e-13 -1.52965046e-11 -2.6334908e-26 -2.44047473e-13 -9.5726432e-28 -2.5730551e-42)
(2.02413833e-13 -1.17692363e-11 -1.62514146e-26 -2.06908968e-13 1.54312341e-25 3.91639693e-40)
(1.61415728e-13 -8.84696092e-12 2.09494992e-26 -1.70676146e-13 1.27733314e-25 -6.3740908e-40)
(1.25462097e-13 -6.48795428e-12 1.35956501e-26 -1.36934998e-13 4.94012453e-28 -1.46924494e-42)
(9.49290948e-14 -4.63391837e-12 -3.07231907e-32 -1.06771366e-13 -8.34440734e-33 -1.06212215e-52)
(6.98117674e-14 -3.21685506e-12 -2.54085857e-32 -8.08120552e-14 -6.15459054e-33 -9.23885538e-53)
(4.98058992e-14 -2.16510515e-12 6.08950768e-33 -5.92822991e-14 2.45497896e-31 -2.01956993e-51)
(3.43966735e-14 -1.40838808e-12 1.0386099e-32 -4.20731341e-14 -7.0775226e-32 9.58583677e-52)
(2.29337317e-14 -8.8175384e-13 4.29671267e-34 -2.88170359e-14 1.71060551e-32 -2.52743188e-53)
(1.47051868e-14 -5.28314824e-13 -4.8653904e-34 -1.89798536e-14 -5.95938102e-34 -1.09914477e-54)
(9.01805865e-15 -3.00604685e-13 -4.73527298e-33 -1.19535574e-14 -1.43425786e-32 -4.68866609e-52)
(5.24280598e-15 -1.60740268e-13 2.72196536e-33 -7.13913175e-15 3.48315377e-32 -1.42174717e-51)
(2.85619469e-15 -7.96340017e-14 1.21359122e-33 -3.99641213e-15 -2.57034966e-34 8.71692952e-54)
(1.43348505e-15 -3.58226761e-14 -4.93795598e-34 -2.06329252e-15 -7.75321926e-33 -2.79859788e-52)
(6.47371436e-16 -1.41899464e-14 -1.23188388e-34 -9.59169687e-16 2.7002066e-33 2.34415331e-53)
(2.52740744e-16 -4.70767844e-15 2.32873906e-34 -3.85965144e-16 -4.33762855e-33 2.14568713e-52)
(7.94824348e-17 -1.19624238e-15 -7.19651279e-35 -1.25231561e-16 1.08310391e-33 6.51587944e-53)
(1.74005051e-17 -1.9382448e-16 2.34572722e-35 -2.8313585e-17 -2.61290897e-34 3.16222785e-53)
(1.81781901e-18 -1.24118579e-17 5.33560478e-38 -3.05290507e-18 -3.6430892e-37 1.56608981e-57)
(1.76643041e-20 -3.54809963e-20 8.87178947e-38 -2.96914675e-20 -3.63109389e-37 1.06919297e-55)
(5.39494964e-20 1.7297024e-19 1.81803278e-32 -9.57226832e-20 -1.0714047e-32 -1.19540331e-45)
(1.79583571e-18 1.68440301e-17 8.61949574e-31 -3.40765387e-18 -5.0907406e-30 -6.6184719e-43)
(1.00605191e-17 1.66260932e-16 -3.56966268e-30 -2.01494544e-17 -5.97461984e-29 1.26637869e-42)
(2.99102427e-17 7.46759633e-16 -3.26215192e-29 -6.35229443e-17 -9.64680922e-29 8.02298444e-42)
(6.37992219e-17 2.24590959e-15 -3.49916261e-29 -1.44975497e-16 3.60010539e-30 -7.70115934e-44)
(1.09967147e-16 5.28828844e-15 -2.79378103e-33 -2.70886359e-16 -1.33132634e-32 1.34310315e-50)
(1.61248808e-16 1.05393114e-14 -1.61214558e-33 -4.40026287e-16 -3.65484753e-33 1.1083238e-51)
(2.04844232e-16 1.85779422e-14 1.95377426e-28 -6.41675057e-16 -1.61709267e-29 -2.69211121e-43)
(2.21298286e-16 2.97429589e-14 2.83715293e-28 -8.5403173e-16 -2.02994337e-27 -3.96715016e-41)
(1.85669504e-16 4.39624967e-14 -3.86353887e-28 -1.04281183e-15 -2.71199473e-27 4.70366944e-41)
(6.61488189e-17 6.05622333e-14 -5.1182601e-28 -1.16183646e-15 3.72021852e-29 -5.45840375e-43)
(-1.66343584e-16 7.81308304e-14 -8.06755866e-33 -1.15552727e-15 9.55203098e-32 -1.9465953e-50)
(-5.42550498e-16 9.43973852e-14 1.57927279e-32 -9.70482836e-16 1.24776608e-31 4.27280135e-50)
(-1.0521745e-15 1.06470357e-13 4.38361793e-32 -5.70626974e-16 -2.63447908e-31 -2.10406982e-49)
(-1.67146073e-15 1.11092047e-13 -4.14684684e-32 1.89075943e-17 1.32742391e-31 -9.67161808e-50)
(-2.23042726e-15 1.05942068e-13 -1.20084888e-32 7.28272311e-16 -4.49984737e-31 1.42220181e-49)
(-2.68884737e-15 9.00616486e-14 8.9790647e-33 1.357915e-15 2.85622467e-31 8.39453268e-50)
(-2.67893171e-15 6.66184947e-14 -2.34740345e-32 1.75671823e-15 2.2970807e-31 -1.30111266e-49)
(-2.33690028e-15 3.97147976e-14 3.09555425e-32 1.64393446e-15 -2.11414549e-31 -2.63706474e-49)
(-1.45713797e-15 1.80070474e-14 -2.05142855e-33 1.18713339e-15 2.95687229e-32 -2.80858897e-51)
(-6.31358715e-16 4.48581602e-15 -3.48774861e-33 5.61149264e-16 4.33629557e-34 -9.90189112e-52)
(-8.78617517e-17 2.72550537e-16 -1.58859545e-32 7.13416253e-17 5.6733283e-32 -2.81166865e-48)
(-1.09198737e-17 4.26311017e-17 -1.2871951e-32 1.34169015e-17 1.04312193e-31 1.07683662e-48)
(-2.6314368e-17 7.5365762e-17 -2.97679415e-32 2.84491048e-17 1.07500618e-31 -3.16494836e-47)
(-1.01525884e-16 2.29142863e-16 1.22040559e-31 1.22210663e-16 -3.60115638e-31 -1.35487766e-46)
(-5.80010345e-16 8.926938e-16 -1.99074361e-31 6.56843068e-16 1.59896979e-30 7.54382241e-46)
(-2.66797269e-15 2.96943876e-15 -1.77777912e-30 2.92949373e-15 3.87223071e-30 -6.09478393e-46)
(-1.04169097e-14 8.67282541e-15 3.90314234e-30 1.10813984e-14 -1.02139788e-29 1.18758758e-45)
(-3.93051942e-14 2.53631052e-14 -9.18054112e-30 4.09020911e-14 2.73138845e-29 5.8447878e-45)
(-1.42912038e-13 7.31925787e-14 3.37957442e-29 1.45171208e-13 -6.04368394e-29 2.19131061e-45)
(-4.78058234e-13 2.00708135e-13 7.57446362e-29 4.77088435e-13 -1.33209407e-28 6.31837229e-45)
(-1.40925321e-12 4.98784615e-13 -2.3623786e-28 1.38448346e-12 3.8171742e-28 1.73269566e-44)
(-3.55431672e-12 1.10328653e-12 4.91410342e-28 3.45763072e-12 -7.88332069e-28 3.84337216e-44)
(-7.26485544e-12 2.05823638e-12 -6.46468439e-28 7.01116368e-12 6.93723594e-28 -2.32004613e-44)
(-1.1989933e-11 3.17013014e-12 -1.00279747e-27 1.15514014e-11 9.40410136e-28 -4.70661883e-44)
(-1.72136605e-11 4.22081371e-12 -1.17698653e-27 1.65600892e-11 1.29641003e-27 -2.27510572e-44)
(-2.28832224e-11 5.12132428e-12 -1.30331338e-27 2.19609748e-11 1.58518657e-27 -1.82197695e-45)
(-2.95239871e-11 5.91099619e-12 -2.85066099e-27 2.82430775e-11 4.14730116e-27 1.59462152e-43)
(-3.88542743e-11 6.79057426e-12 1.75702886e-27 3.69696932e-11 -1.13475513e-27 -6.15008415e-44)
(-5.76808478e-11 8.98907311e-12 3.89659156e-28 5.45497227e-11 1.09918597e-27 2.14137847e-44)
(-9.97838308e-11 1.61585088e-11 -2.19645751e-27 9.34969812e-11 1.65954705e-27 -3.06607482e-44)
(-1.88218798e-10 3.8372194e-11 2.74526843e-27 1.75328618e-10 -2.84400583e-27 -1.15502613e-44)
(-3.90671206e-10 1.13957125e-10 3.73400676e-27 3.63106003e-10 4.89041352e-27 5.45238125e-44)
(-8.47110694e-10 3.81038356e-10 3.03165923e-27 7.85611078e-10 1.76588279e-26 3.67262269e-43)
(-1.59869791e-09 1.21642496e-09 -2.52717608e-26 1.49582738e-09 -1.64792125e-26 1.27097586e-43)
(-1.32493667e-09 1.92222147e-09 8.82322225e-27 1.24874276e-09 1.44141795e-27 -8.51817125e-45)
(-2.96029694e-10 9.56860409e-10 1.77704045e-28 3.02387758e-10 5.89648615e-29 1.14742705e-47)
(-1.65562006e-11 1.44155557e-10 1.33647921e-29 1.76882474e-11 -1.48384428e-28 -9.98324172e-48)
(-4.3648147e-13 1.80108111e-11 -1.3585345e-34 8.29290671e-13 5.60580687e-33 -4.22839482e-56)
(-4.36290598e-11 4.39330882e-09 -5.34931478e-29 5.54754635e-11 -1.61053127e-31 -4.3020011e-51)
(1.21998255e-10 3.18092457e-09 -2.22808521e-27 -6.97377142e-11 3.16388182e-29 -1.01108881e-47)
(1.07912399e-10 9.29014442e-10 2.44457381e-25 -1.21124036e-10 -3.39134178e-26 -9.46150108e-42)
(3.13762873e-12 1.25620589e-11 3.39537898e-26 -2.88921948e-12 -1.60760813e-25 -1.28780364e-39)
(-4.77638457e-14 -1.17111927e-14 -2.17431978e-27 4.63770955e-14 -9.90462677e-28 -9.47329538e-41)
(-1.52147996e-12 -7.22954555e-13 -7.59965009e-28 1.51262795e-12 1.69717398e-27 1.90283161e-42)
(-8.84495774e-13 -3.04844495e-13 1.36898607e-30 8.6671035e-13 -3.96549821e-30 1.81428491e-47)
(-6.59629639e-13 -1.61305969e-13 4.13711454e-29 6.5544357e-13 4.7791194e-29 -5.52188521e-46)
(-5.3146596e-13 -1.04112841e-13 -1.08545091e-26 5.26047488e-13 -1.33393405e-26 8.39993232e-42)
(-4.52395512e-13 -8.58083377e-14 -1.07720613e-26 4.50144454e-13 -1.33038697e-26 1.53685547e-41)
(-4.09273363e-13 -8.33767513e-14 4.27208126e-29 4.06698978e-13 4.75057251e-29 -9.05585543e-46)
(-4.48463628e-13 -9.80563002e-14 -5.28432131e-32 4.46577953e-13 -5.96378807e-32 -1.28652223e-51)
(-5.77844983e-13 -1.31908766e-13 -2.44894476e-30 5.76229066e-13 8.57538401e-30 1.27229737e-46)
(-8.89829858e-13 -2.06607171e-13 1.07970581e-29 8.88278988e-13 -5.41234947e-30 -6.40244141e-47)
(-1.58544797e-12 -3.70715198e-13 -5.50035022e-28 1.58428158e-12 -7.20549326e-28 1.88717296e-44)
(-3.0235817e-12 -7.13427757e-13 6.04460232e-31 3.01791781e-12 8.90486054e-31 5.46931564e-50)
(-5.58356055e-12 -1.37545604e-12 -1.22129821e-27 5.57579945e-12 -1.50518768e-27 -2.19105028e-44)
(-9.63365418e-12 -2.63164775e-12 -7.84141264e-30 9.61234537e-12 -3.82665984e-30 -6.10790918e-48)
(-1.54224409e-11 -4.9435064e-12 1.60033475e-27 1.5382505e-11 2.13371968e-27 -1.12424962e-44)
(-2.25852541e-11 -8.86637077e-12 -2.32126746e-27 2.25113275e-11 -3.33783588e-27 -1.20353359e-44)
(-3.03324637e-11 -1.50607427e-11 3.45679191e-27 3.02671664e-11 4.52190116e-27 -1.85418321e-43)
(-3.83512099e-11 -2.45741407e-11 -4.74030785e-28 3.82700275e-11 -6.12864526e-28 -4.0901144e-45)
(-4.60172682e-11 -3.84314538e-11 -6.61516963e-27 4.59136225e-11 -9.80462641e-27 -7.16141321e-43)
(-5.1572423e-11 -5.69778389e-11 -6.64894161e-27 5.15259027e-11 -1.32605905e-26 -5.51605321e-43)
(-5.37796472e-11 -8.09899435e-11 -7.27624004e-27 5.38419849e-11 -1.81479591e-26 -6.9038978e-43)
(-5.29783827e-11 -1.13707888e-10 9.68840362e-28 5.22818786e-11 1.3258726e-27 -1.58013935e-44)
(-5.07544518e-11 -1.78398714e-10 -4.02210342e-25 5.36393611e-11 -2.68719242e-24 -8.05010399e-40)
(-5.87426598e-11 -3.49686141e-10 -5.71633311e-25 5.9033185e-11 -4.39202563e-24 -5.10555609e-39)
(-7.9773752e-11 -7.67748091e-10 2.23910299e-29 8.05753763e-11 -5.20900963e-31 -3.77035245e-50)
(-1.0529092e-10 -1.42960363e-09 -2.37435336e-29 1.14428969e-10 -3.22501198e-28 -5.35426334e-48)
(-1.23282299e-10 -2.19047321e-09 2.51250981e-29 1.30440695e-10 4.46421382e-28 -5.12052875e-48)
(-1.28011982e-10 -2.98413108e-09 -1.223423e-24 1.39332762e-10 -2.85196318e-23 -1.16923729e-38)
(-1.25339628e-10 -3.73426803e-09 -1.15067996e-24 1.37523474e-10 -3.4282433e-23 -1.05638129e-38)
(-1.14966656e-10 -4.39207266e-09 -7.00694383e-29 1.28800119e-10 -2.67686367e-27 -4.27056537e-47)
(-9.95961428e-11 -4.91785941e-09 3.87451934e-29 1.13986692e-10 1.91316058e-27 -1.50727726e-47)
(-8.03089263e-11 -5.28842329e-09 2.63248517e-30 9.49832654e-11 1.73351787e-28 -8.62915054e-50)
(-5.90356681e-11 -5.49291004e-09 -2.01401033e-30 7.33456883e-11 -1.87391418e-28 -6.87082529e-50)
(-3.73393531e-11 -5.53368643e-09 -6.53996688e-29 5.08602142e-11 -3.04948136e-30 -7.91680713e-50)
(-1.67525117e-11 -5.42332302e-09 1.65782427e-25 2.90415989e-11 5.36110165e-23 -1.64057673e-39)
(1.75620005e-12 -5.18208584e-09 -1.80615951e-26 9.09548636e-12 5.29548969e-23 1.85746454e-40)
(1.7307078e-11 -4.83494807e-09 1.09118238e-28 -8.09441541e-12 2.17117959e-29 -9.76232048e-49)
(2.93654844e-11 -4.41028825e-09 -3.84733749e-29 -2.19308618e-11 -1.34356719e-28 -2.36964149e-48)
(3.78425904e-11 -3.93086668e-09 -4.87569277e-29 -3.21495273e-11 -4.7265334e-28 -1.22664301e-47)
(4.29866715e-11 -3.43094203e-09 -5.57348127e-29 -3.88791941e-11 8.79769631e-29 2.83992038e-48)
(4.51654765e-11 -2.93359121e-09 4.58679682e-29 -4.24341515e-11 1.27704346e-27 -4.8472002e-47)
(4.4866666e-11 -2.45724978e-09 1.05825881e-28 -4.32700226e-11 -1.2019459e-27 9.2843501e-47)
(4.26353191e-11 -2.01580752e-09 7.05135016e-25 -4.19240857e-11 -3.33411869e-23 1.16620539e-38)
(3.90198824e-11 -1.61869768e-09 6.92690156e-25 -3.89562569e-11 -2.87367928e-23 1.2296799e-38)
(3.45315896e-11 -1.2712716e-09 7.59152854e-30 -3.49032893e-11 -2.79480174e-28 1.66894447e-48)
(2.96175085e-11 -9.75360937e-10 0 -3.02458667e-11 0 0)
(2.4644456e-11 -7.29940589e-10 -7.40695121e-31 -2.53885006e-11 2.1938542e-29 2.22617721e-50)
(1.98946638e-11 -5.31818343e-10 5.06590801e-25 -2.06508433e-11 -1.354225e-23 1.2899652e-38)
(1.55681534e-11 -3.76300095e-10 8.57783007e-25 -1.62670436e-11 -2.07333339e-23 4.7262618e-38)
(1.1789347e-11 -2.57796516e-10 3.5058424e-25 -1.23907983e-11 -7.66612098e-24 1.04254553e-38)
(8.61761031e-12 -1.70346845e-10 -3.80512525e-30 -9.10461811e-12 -1.03340861e-29 -4.8752939e-49)
(6.05889661e-12 -1.08046551e-10 -2.1589191e-30 -6.43152582e-12 1.88259409e-29 5.69061042e-49)
(4.0783094e-12 -6.53752128e-11 -8.30671497e-31 -4.34772263e-12 1.15102688e-31 3.59939442e-51)
(2.61189382e-12 -3.74266527e-11 6.50871459e-31 -2.79543626e-12 -5.21501596e-30 1.30836517e-49)
(1.57828503e-12 -2.00467164e-11 2.57236387e-31 -1.69535857e-12 8.88565575e-31 -2.54560593e-50)
(8.89186236e-13 -9.88702462e-12 4.40855714e-32 -9.58333876e-13 -4.90195543e-31 2.18574864e-51)
(4.58677471e-13 -4.38487789e-12 -2.78937628e-32 -4.95878633e-13 2.66659584e-31 1.69631615e-51)
(2.10497142e-13 -1.68533706e-12 -3.61938442e-32 -2.28192801e-13 -1.31400807e-31 -6.70480983e-51)
(8.18482769e-14 -5.28019533e-13 3.59217917e-32 -8.89611483e-14 -1.97196616e-31 1.54240958e-50)
(2.46744745e-14 -1.20509849e-13 -3.73836052e-34 -2.68813844e-14 6.60613841e-32 -6.69871213e-51)
(4.77401949e-15 -1.57293343e-14 -1.44809784e-34 -5.2132223e-15 -5.25884199e-34 -1.3245069e-53)
(3.5343397e-16 -5.89610252e-16 1.10011825e-34 -3.86593423e-16 6.94773002e-35 -1.24731446e-53)
(3.0326259e-23 1.51258793e-25 -1.58968815e-37 -3.31773762e-23 2.28987618e-38 8.16389406e-52)
(2.94020618e-16 5.10539139e-16 1.94637821e-28 -3.22923069e-16 3.37970189e-28 1.28847704e-40)
(3.33613693e-15 1.17976249e-14 1.14136413e-27 -3.67138054e-15 4.03621318e-27 3.90485195e-40)