/*--------------------------------*- C++ -*----------------------------------*\
| =========                 |                                                 |
| \\      /  F ield         | OpenFOAM: The Open Source CFD Toolbox           |
|  \\    /   O peration     | Version:  2506                                  |
|   \\  /    A nd           | Website:  www.openfoam.com                      |
|    \\/     M anipulation  |                                                 |
\*---------------------------------------------------------------------------*/
FoamFile
{
    version     2.0;
    format      ascii;
    arch        "LSB;label=32;scalar=64";
    class       volSymmTensorField;
    location    "2644";
    object      Tij2;
}
// * * * * * * * * * * * * * * * * * * * * * * * * * * * * * * * * * * * * * //

dimensions      [0 0 0 0 0 0 0];

internalField   nonuniform List<symmTensor> 
15600
(
(-1.46508863e-06 3.85241536e-09 1.94495295e-28 1.46508863e-06 1.41655602e-28 -1.82257683e-46)
(-1.75004102e-06 7.98489586e-08 3.89474818e-25 1.75004102e-06 7.324929e-25 2.34300383e-43)
(-8.18092308e-07 1.76362744e-07 3.37321272e-26 8.18092308e-07 -3.90817295e-27 -8.51924681e-44)
(-1.82825146e-09 -1.34856798e-10 -2.5351955e-22 1.82825146e-09 -1.39797145e-24 -3.9870497e-35)
(-1.33896178e-07 1.68045263e-07 3.1983234e-21 1.33896178e-07 -1.51890576e-21 -5.83490041e-35)
(-1.03084975e-07 2.09583097e-07 -1.15645019e-23 1.03084975e-07 5.27242355e-24 -6.69456695e-40)
(-4.41439878e-08 1.37699852e-07 -5.38612361e-24 4.41439878e-08 3.90680557e-24 -3.068195e-40)
(-2.71168288e-08 1.20843425e-07 -6.19874795e-23 2.71168288e-08 4.83219389e-23 -1.24442823e-37)
(-1.89964766e-08 1.0713642e-07 8.40279421e-22 1.89964766e-08 -4.29735393e-22 -7.47931341e-36)
(-1.61563594e-08 9.67464001e-08 9.82856236e-22 1.61563594e-08 -5.83599772e-22 -1.26696538e-35)
(-1.62167794e-08 8.79556357e-08 6.67440327e-23 1.62167794e-08 -5.5300584e-23 -2.22475019e-37)
(-1.81204829e-08 8.75430585e-08 2.03382055e-27 1.81204829e-08 -1.4497499e-27 -6.94201784e-47)
(-2.10536881e-08 9.32956729e-08 -3.77088431e-25 2.10536881e-08 3.00365056e-25 -7.19229443e-42)
(-2.59412681e-08 1.08142753e-07 -2.65892038e-23 2.59412681e-08 2.09305358e-23 -1.03020964e-38)
(-3.38756227e-08 1.35405717e-07 2.65770919e-23 3.38756227e-08 -1.95236326e-23 -7.78227793e-39)
(-4.58424254e-08 1.78157242e-07 -1.12054137e-25 4.58424254e-08 8.75555984e-26 -2.36574042e-43)
(-6.21664468e-08 2.33275653e-07 1.26173935e-23 6.21664468e-08 -7.62333989e-24 -9.27898582e-40)
(-8.58822375e-08 2.95762044e-07 1.20417724e-23 8.58822375e-08 -1.16264724e-23 -8.82046352e-40)
(-1.20529074e-07 3.617152e-07 -3.57323128e-23 1.20529074e-07 2.56888302e-23 -5.26027089e-39)
(-1.67855205e-07 4.20453737e-07 -3.62648784e-23 1.67855205e-07 2.45337221e-23 -4.3433688e-39)
(-2.27516096e-07 4.58904005e-07 -2.37577915e-23 2.27516096e-07 1.0618653e-23 -1.27435166e-39)
(-3.00436203e-07 4.72860254e-07 2.59800767e-23 3.00436203e-07 -9.9293324e-24 -1.38116139e-39)
(-3.83332145e-07 4.63871896e-07 1.01203989e-22 3.83332145e-07 -4.76016523e-23 -2.08487684e-38)
(-4.64297609e-07 4.2572306e-07 8.3297816e-25 4.64297609e-07 -3.10635454e-25 -2.55816939e-41)
(-5.3517654e-07 3.59355154e-07 1.07488559e-22 5.3517654e-07 -3.2784609e-23 -1.95902418e-38)
(-5.99588746e-07 2.73558579e-07 -1.56184385e-22 5.99588746e-07 3.12797782e-23 -7.61860175e-37)
(-6.38243314e-07 1.69214134e-07 3.39125193e-21 6.38243314e-07 -1.18119413e-22 -1.79523058e-35)
(-8.63378207e-07 8.56372384e-08 3.56964912e-21 8.63378207e-07 2.55394225e-22 -1.50224202e-35)
(-1.51046465e-06 4.31128729e-08 -7.48012128e-23 1.51046465e-06 2.05049243e-24 -7.99650717e-37)
(-2.3085127e-06 4.65113365e-08 3.02254528e-31 2.3085127e-06 -3.7213908e-33 -8.26438626e-54)
(-3.05487295e-06 4.55780854e-08 1.22861939e-22 3.05487295e-06 -1.10295714e-24 -1.10831699e-36)
(-3.78330847e-06 4.42255653e-08 9.16574573e-21 3.78330847e-06 2.09824057e-21 -2.2156366e-35)
(-4.45240505e-06 4.17708754e-08 8.92652432e-21 4.45240505e-06 2.51050415e-21 -1.74520746e-35)
(-5.06147098e-06 3.88868657e-08 -1.58116591e-22 5.06147098e-06 7.36327332e-25 -1.18831502e-36)
(-5.6012554e-06 3.56034154e-08 -8.89231946e-25 5.6012554e-06 3.35173837e-27 -1.41170755e-43)
(-6.06860323e-06 3.19801615e-08 -9.80172003e-25 6.06860323e-06 3.13675264e-27 -1.58312732e-43)
(-6.45914816e-06 2.80561405e-08 1.01115371e-24 6.45914816e-06 -2.74500657e-27 -1.58526112e-43)
(-6.77086014e-06 2.39195277e-08 -1.75847954e-22 6.77086014e-06 4.47986895e-25 -1.53029534e-36)
(-7.00319104e-06 1.96764797e-08 -1.37591858e-20 7.00319104e-06 -3.81976003e-21 -2.65866718e-35)
(-7.1573453e-06 1.54077383e-08 -1.3097683e-20 7.1573453e-06 -3.93239744e-21 -2.32950308e-35)
(-7.23560234e-06 1.11879353e-08 1.74793307e-22 7.23560234e-06 -2.15166551e-25 -1.67188476e-36)
(-7.24159522e-06 7.08711407e-09 1.76459339e-25 7.24159522e-06 2.58229083e-26 -5.26304405e-45)
(-7.18004346e-06 3.17479472e-09 4.92099463e-25 7.18004346e-06 -2.61888149e-26 -3.36344514e-44)
(-7.05646842e-06 -4.90765935e-10 -1.1643844e-24 7.05646842e-06 2.57712358e-26 -1.92040782e-43)
(-6.87706004e-06 -3.86240499e-09 -2.13582876e-25 6.87706004e-06 -2.50081276e-26 -6.86522453e-45)
(-6.6484688e-06 -6.90539312e-09 1.59652894e-22 6.6484688e-06 -1.92950922e-26 -2.84624244e-36)
(-6.37758574e-06 -9.59700009e-09 1.76787749e-20 6.37758574e-06 3.65137813e-21 -4.99863593e-35)
(-6.07135962e-06 -1.19249093e-08 1.68803313e-20 6.07135962e-06 3.49276919e-21 -4.7833624e-35)
(-5.73664606e-06 -1.3885698e-08 -1.33796587e-22 5.73664606e-06 -4.85685612e-26 -3.06998056e-36)
(-5.38008612e-06 -1.54831371e-08 2.54489997e-25 5.38008612e-06 -9.714369e-27 -1.21136974e-44)
(-5.00802796e-06 -1.67257137e-08 -6.24904336e-25 5.00802796e-06 8.14346344e-27 -7.80893881e-44)
(-4.6264798e-06 -1.76255762e-08 9.42228277e-23 4.6264798e-06 7.6138439e-26 -3.75531894e-36)
(-4.24107262e-06 -1.81979219e-08 1.69132802e-20 4.24107262e-06 2.36667951e-21 -7.01152632e-35)
(-3.85703522e-06 -1.84602418e-08 1.61768753e-20 3.85703522e-06 2.16271273e-21 -7.0555413e-35)
(-3.47917702e-06 -1.84323181e-08 -6.72082094e-23 3.47917702e-06 -9.27177022e-26 -3.98279523e-36)
(-3.11186243e-06 -1.81368983e-08 -3.88235308e-27 3.11186243e-06 -1.08165273e-29 -4.14563457e-47)
(-2.75896209e-06 -1.76013324e-08 -3.37699156e-27 2.75896209e-06 -1.07917534e-29 -1.5198549e-47)
(-2.42377803e-06 -1.68589506e-08 9.55385895e-26 2.42377803e-06 1.44047498e-27 -3.79297526e-45)
(-2.10893845e-06 -1.59503171e-08 3.94696697e-26 2.10893845e-06 -1.36504557e-27 -7.40355293e-46)
(-1.81630584e-06 -1.49196785e-08 1.01534682e-26 1.81630584e-06 4.90845718e-28 -8.15400083e-47)
(-1.54699749e-06 -1.38083488e-08 -3.26407913e-26 1.54699749e-06 -1.50014641e-28 -7.15444715e-46)
(-1.30149189e-06 -1.26488946e-08 7.27041042e-26 1.30149189e-06 -2.36437228e-28 -4.07158166e-45)
(-1.07988663e-06 -1.14603213e-08 7.47038317e-26 1.07988663e-06 9.65160549e-28 -5.17820588e-45)
(-8.82032821e-07 -1.02591776e-08 -1.03025011e-25 8.82032821e-07 -6.32468173e-28 -1.20423182e-44)
(-7.07555474e-07 -9.06256761e-09 -4.31574029e-29 7.07555474e-07 -6.44044749e-31 -5.87927118e-47)
(-5.55736116e-07 -7.89396299e-09 -5.95140858e-26 5.55736116e-07 7.97519854e-29 -6.42292349e-45)
(-4.25528412e-07 -6.76964857e-09 5.21990184e-26 4.25528412e-07 -1.75035591e-29 -6.46962315e-45)
(-3.15692629e-07 -5.70125416e-09 -4.09869061e-29 3.15692629e-07 -8.15431109e-31 -5.88888512e-47)
(-2.24876291e-07 -4.69366616e-09 0 2.24876291e-07 0 0)
(-1.51712961e-07 -3.74945898e-09 0 1.51712961e-07 0 0)
(-9.48239619e-08 -2.87273732e-09 0 9.48239619e-08 0 0)
(-5.27669303e-08 -2.06950656e-09 8.53180545e-24 5.27669303e-08 4.45024346e-25 -7.80730431e-36)
(-2.4016572e-08 -1.34460052e-09 -2.07736458e-21 2.4016572e-08 -7.79780459e-23 -2.07769333e-34)
(-7.01930032e-09 -6.98684074e-10 -2.333051e-21 7.01930032e-09 -1.39393843e-22 -7.75561839e-34)
(-2.60148941e-10 -1.29052179e-10 -2.15373234e-22 2.60148941e-10 -6.67466327e-23 -2.43481643e-34)
(-2.30401528e-09 3.67949108e-10 1.44711178e-23 2.30401528e-09 -4.96164125e-25 -8.05744673e-36)
(-1.1789143e-08 7.94573576e-10 -3.89673873e-26 1.1789143e-08 1.53781195e-27 -1.29259593e-43)
(-2.73851569e-08 1.15038932e-09 -2.76473106e-26 2.73851569e-08 7.30726979e-28 -2.79102866e-44)
(-4.77512168e-08 1.43282367e-09 -3.97244467e-23 4.77512168e-08 5.75685762e-25 -9.0017431e-36)
(-7.14881113e-08 1.63627771e-09 3.69702109e-21 7.14881113e-08 -9.06510186e-23 -2.00906828e-34)
(-9.70898987e-08 1.75190276e-09 4.68447368e-21 9.70898987e-08 -1.05303541e-22 -2.34381919e-34)
(-1.22857676e-07 1.76687781e-09 6.14072889e-23 1.22857676e-07 -5.08495797e-25 -8.97446027e-36)
(-1.46896061e-07 1.66653417e-09 -1.46106215e-25 1.46896061e-07 6.96742653e-28 -1.46849189e-43)
(-1.66977502e-07 1.43385888e-09 -1.46499499e-25 1.66977502e-07 1.71838382e-27 -1.2853209e-43)
(-1.8077377e-07 1.06086462e-09 3.15571473e-25 1.8077377e-07 -1.88247012e-27 -5.50884044e-43)
(-1.85685153e-07 5.55186378e-10 8.2894268e-25 1.85685153e-07 -1.56442756e-27 -3.71359782e-42)
(-1.80034675e-07 -5.67418698e-11 -1.15503534e-24 1.80034675e-07 -1.7246803e-28 -7.41029375e-42)
(-1.61623707e-07 -7.3909112e-10 3.24047706e-25 1.61623707e-07 1.06599484e-27 -7.03295996e-43)
(-1.31916026e-07 -1.37503063e-09 2.86304343e-25 1.31916026e-07 1.50841342e-27 -6.72064112e-43)
(-9.09379743e-08 -1.81537789e-09 -8.44186156e-25 9.09379743e-08 -7.50338484e-27 -7.83678864e-42)
(-4.90447745e-08 -1.82671108e-09 7.10034493e-25 4.90447745e-08 1.11418502e-26 -1.03252647e-41)
(-1.2008016e-08 -1.42179517e-09 -1.31828987e-25 1.2008016e-08 -7.01198738e-27 -1.46556455e-42)
(-3.12485547e-09 4.4919515e-10 7.05452635e-28 3.12485547e-09 3.6729833e-29 -6.49880234e-45)
(-1.48245085e-08 -3.58700038e-09 1.78565512e-25 1.48245085e-08 3.37359318e-26 -4.24073798e-40)
(-9.23559572e-09 -4.32957742e-09 -2.08170496e-23 9.23559572e-09 -4.39777468e-24 -4.43778427e-38)
(-2.61708906e-09 -1.9687852e-09 1.65530687e-23 2.61708906e-09 5.04425893e-24 -9.13041299e-38)
(-4.2827991e-10 -2.58677792e-10 1.94441915e-23 4.2827991e-10 7.44774907e-24 -8.73293102e-37)
(-9.3242847e-09 -1.03006719e-08 4.02968428e-23 9.3242847e-09 1.88450072e-23 -1.48521212e-37)
(-2.98212809e-08 -4.38718126e-08 -6.65654368e-23 2.98212809e-08 -3.61761891e-23 -1.08242332e-37)
(-6.61152306e-08 -1.24106197e-07 9.60104232e-23 6.61152306e-08 5.83849177e-23 -8.98201082e-38)
(-1.24155458e-07 -2.86415021e-07 7.08732163e-23 1.24155458e-07 4.42049126e-23 -2.41465532e-38)
(-2.10505024e-07 -5.74660936e-07 -1.67013685e-22 2.10505024e-07 -1.21839869e-22 -7.03205228e-38)
(-3.29184929e-07 -1.02314011e-06 2.74305073e-22 3.29184929e-07 1.99364691e-22 -1.07169273e-37)
(-4.81871274e-07 -1.63207129e-06 -9.09162849e-24 4.81871274e-07 -6.75987221e-24 -2.59209537e-40)
(-6.46522301e-07 -2.29032884e-06 2.35304488e-22 6.46522301e-07 1.77053718e-22 -3.65447821e-38)
(-7.76691444e-07 -2.86874991e-06 -1.207355e-22 7.76691444e-07 -6.64563897e-23 -6.1083107e-39)
(-8.61875751e-07 -3.36806145e-06 -1.19958238e-22 8.61875751e-07 -6.27043315e-23 -4.94097985e-39)
(-9.08488784e-07 -3.82552094e-06 -1.1604119e-22 9.08488784e-07 -5.7140454e-23 -3.88388908e-39)
(-9.27845839e-07 -4.29838796e-06 2.0942039e-22 9.27845839e-07 2.06022665e-22 -1.94618941e-38)
(-9.38157417e-07 -4.88982615e-06 1.20849071e-22 9.38157417e-07 5.52831065e-23 -3.19485127e-39)
(-1.03572907e-06 -5.9118772e-06 3.43581201e-22 1.03572907e-06 2.32664659e-22 -2.81528338e-38)
(-1.42591539e-06 -7.61392957e-06 1.65203914e-22 1.42591539e-06 1.35593167e-22 -5.89715924e-39)
(-2.36003902e-06 -1.0053039e-05 -1.45725062e-22 2.36003902e-06 -1.14070842e-22 -3.34256709e-39)
(-4.51828535e-06 -1.3748645e-05 4.565775e-23 4.51828535e-06 3.2597358e-23 -2.32326882e-40)
(-9.33433742e-06 -1.87230024e-05 2.38307709e-22 9.33433742e-06 1.45514494e-22 -3.73012182e-39)
(-1.85327836e-05 -2.22582515e-05 -1.97030293e-23 1.85327836e-05 -9.09873318e-24 -1.70292601e-41)
(-2.37020471e-05 -1.47493806e-05 6.55298522e-24 2.37020471e-05 -9.63466057e-23 3.04907094e-40)
(-1.48914723e-05 -4.15816282e-06 3.27188254e-25 1.48914723e-05 5.11606204e-26 -3.14351702e-43)
(-4.99755706e-06 -4.11402572e-07 -2.65189971e-24 4.99755706e-06 -1.11201177e-25 -1.40526336e-42)
(-1.67966345e-06 -2.78339934e-08 -1.02731756e-27 1.67966345e-06 -4.85221172e-29 -3.23384413e-45)
(-7.34579404e-05 -1.37839971e-07 -3.35388842e-27 7.34579404e-05 -5.79728283e-30 -1.76181208e-49)
(-7.37846372e-05 2.59346605e-06 -3.36735494e-23 7.37846372e-05 3.18937035e-23 -2.60311211e-42)
(-4.07809474e-05 6.59753547e-06 -1.19413757e-21 4.07809474e-05 1.23706598e-22 -3.77079024e-36)
(-2.83984302e-06 5.63283648e-07 5.73461768e-20 2.83984302e-06 -1.35626458e-20 -1.16824568e-33)
(-1.8579481e-06 3.01447574e-06 -8.13694376e-20 1.8579481e-06 2.44636148e-20 -1.85008587e-33)
(-2.65254665e-06 5.50238992e-06 -2.23030949e-21 2.65254665e-06 1.49699044e-21 -4.85866772e-36)
(-1.31215056e-06 3.97842329e-06 1.70152898e-22 1.31215056e-06 -1.23912362e-22 -1.05757842e-38)
(-8.0352845e-07 3.53714091e-06 2.7250607e-21 8.0352845e-07 -2.16984543e-21 -9.72387034e-36)
(-5.76702691e-07 3.18846693e-06 5.00886725e-20 5.76702691e-07 -5.05744141e-20 -1.54626162e-33)
(-5.04870395e-07 2.92921643e-06 4.90306871e-20 5.04870395e-07 -4.91330321e-20 -1.602539e-33)
(-5.18446014e-07 2.72900256e-06 -3.34602987e-21 5.18446014e-07 2.7748231e-21 -1.83257371e-35)
(-5.80190503e-07 2.76661699e-06 -6.5277387e-26 5.80190503e-07 3.48537482e-26 -1.79744317e-45)
(-6.74760659e-07 3.00053188e-06 -1.94291854e-23 6.74760659e-07 1.55652188e-23 -5.97613198e-40)
(-8.25800104e-07 3.52024619e-06 9.203474e-22 8.25800104e-07 -6.67934327e-22 -3.58161238e-37)
(-1.06427933e-06 4.42293079e-06 4.379892e-22 1.06427933e-06 -4.629122e-22 -8.59790692e-38)
(-1.41622228e-06 5.77417397e-06 -3.04596136e-23 1.41622228e-06 2.39657211e-23 -7.78534583e-40)
(-1.90092151e-06 7.46928759e-06 6.11135192e-22 1.90092151e-06 -5.42682772e-22 -8.71811991e-38)
(-2.6187709e-06 9.3652303e-06 -1.68432576e-21 2.6187709e-06 1.36437693e-21 -4.83052207e-37)
(-3.67838062e-06 1.13363312e-05 1.07182318e-21 3.67838062e-06 -7.80583648e-22 -1.48865198e-37)
(-5.15405368e-06 1.30931602e-05 1.15993638e-21 5.15405368e-06 -7.92450465e-22 -1.42859963e-37)
(-7.07969739e-06 1.4328948e-05 -1.44713753e-21 7.07969739e-06 1.03225748e-21 -1.99331719e-37)
(-9.51738057e-06 1.49411721e-05 -6.36501721e-22 9.51738057e-06 2.15927282e-22 -4.12798769e-38)
(-1.23824387e-05 1.48960437e-05 -3.33553626e-21 1.23824387e-05 1.2727371e-21 -6.5560181e-37)
(-1.53938462e-05 1.39913906e-05 -3.81795294e-23 1.53938462e-05 1.33409803e-23 -1.47157917e-39)
(-1.83609676e-05 1.22098233e-05 -1.48290424e-21 1.83609676e-05 2.91188238e-22 -1.03861494e-37)
(-2.13296266e-05 9.67894716e-06 9.31855669e-21 2.13296266e-05 -1.40805616e-21 -6.04027135e-35)
(-2.47771277e-05 6.87400973e-06 2.76568283e-19 2.47771277e-05 -4.86190762e-20 -3.10953889e-33)
(-3.38994835e-05 4.57429282e-06 3.24511506e-19 3.38994835e-05 -3.75053542e-20 -3.196667e-33)
(-5.26696326e-05 3.58457952e-06 2.61692918e-21 5.26696326e-05 -2.57087385e-22 -5.96710407e-35)
(-7.38570981e-05 3.6438477e-06 -2.28813829e-29 7.38570981e-05 9.47909045e-31 -2.51227801e-51)
(-9.28779644e-05 3.34797774e-06 -4.8556576e-21 9.28779644e-05 1.34870957e-22 -8.41805073e-35)
(-0.000110359091 3.05818672e-06 6.823406e-19 0.000110359091 -7.6472531e-20 -4.25685002e-33)
(-0.000125687977 2.7123762e-06 7.65734564e-19 0.000125687977 -8.42929788e-20 -4.727226e-33)
(-0.000138953711 2.36311335e-06 6.44794987e-21 0.000138953711 -7.82731116e-23 -8.48492965e-35)
(-0.000150083708 2.00653978e-06 -4.59713635e-25 0.000150083708 3.17772878e-24 -3.84934342e-43)
(-0.000159099983 1.64777084e-06 -1.34967909e-24 0.000159099983 3.54048481e-24 -1.40509933e-43)
(-0.000166005413 1.28893945e-06 8.79934037e-25 0.000166005413 -3.61275567e-24 1.90097136e-44)
(-0.000170846093 9.3628278e-07 7.3004889e-21 0.000170846093 -2.86302001e-23 -1.12573631e-34)
(-0.000173694278 5.95814135e-07 -1.00972077e-18 0.000173694278 1.11778404e-19 -5.91612081e-33)
(-0.000174650529 2.71914969e-07 -1.07281362e-18 0.000174650529 1.10660391e-19 -6.6362751e-33)
(-0.000173832705 -3.15299355e-08 -7.18548455e-21 0.000173832705 5.88516957e-24 -1.17915316e-34)
(-0.000171393171 -3.10436017e-07 -2.93798861e-24 0.000171393171 -1.95878139e-24 -2.8121189e-44)
(-0.000167458545 -5.61767161e-07 -1.27530224e-23 0.000167458545 -1.15094327e-26 -1.05636189e-42)
(-0.000162220327 -7.83787676e-07 1.30601364e-23 0.000162220327 1.92386572e-24 -1.05599042e-42)
(-0.000155864045 -9.75389897e-07 3.85811472e-24 0.000155864045 1.8140823e-24 -2.96194394e-43)
(-0.000148567018 -1.13622422e-06 -6.88212292e-21 0.000148567018 -2.02204157e-23 -2.08946066e-34)
(-0.000140504496 -1.26666881e-06 1.24436496e-18 0.000140504496 -9.2484782e-20 -1.11775026e-32)
(-0.000131846564 -1.36768114e-06 1.2645226e-18 0.000131846564 -8.5311812e-20 -1.22476031e-32)
(-0.000122755743 -1.4406638e-06 5.95948197e-21 0.000122755743 2.18740388e-23 -2.2025053e-34)
(-0.000113385256 -1.48732407e-06 -6.59970311e-24 0.000113385256 -4.42568653e-26 -4.59593778e-43)
(-0.000103878051 -1.50952627e-06 6.40814519e-24 0.000103878051 6.63841302e-25 -4.02295112e-43)
(-9.43662762e-05 -1.50922316e-06 -4.60894661e-21 9.43662762e-05 -2.16744215e-23 -2.79986428e-34)
(-8.49709148e-05 -1.4884209e-06 1.11504351e-18 8.49709148e-05 -5.01941675e-20 -1.49067668e-32)
(-7.58015744e-05 -1.44914344e-06 1.09259871e-18 7.58015744e-05 -4.33835533e-20 -1.59351691e-32)
(-6.69563233e-05 -1.39344714e-06 3.61709041e-21 6.69563233e-05 1.87932611e-23 -2.94247609e-34)
(-5.85212663e-05 -1.32347659e-06 -1.00904526e-25 5.85212663e-05 -1.20659703e-26 -2.90410964e-45)
(-5.05696987e-05 -1.24156117e-06 -9.17215385e-26 5.05696987e-05 -1.14007759e-26 -3.49773489e-45)
(-4.31608147e-05 -1.15029131e-06 4.89135006e-24 4.31608147e-05 -8.12321028e-26 -5.53304226e-43)
(-3.63381715e-05 -1.05252855e-06 -1.82956981e-24 3.63381715e-05 3.02823103e-27 -9.41761867e-44)
(-3.01289094e-05 -9.51153386e-07 5.84154489e-25 3.01289094e-05 -1.7283693e-26 -1.12846895e-44)
(-2.45450388e-05 -8.48688603e-07 -2.73923088e-26 2.45450388e-05 1.95631353e-26 -1.37837379e-47)
(-1.9586429e-05 -7.46978886e-07 -9.27733257e-25 1.9586429e-05 -3.46948703e-26 -4.96957672e-44)
(-1.52454374e-05 -6.47138398e-07 3.29594337e-24 1.52454374e-05 1.45985147e-26 -7.15320359e-43)
(-1.15089558e-05 -5.50112737e-07 -4.18424933e-26 1.15089558e-05 4.41002353e-26 -4.17144622e-45)
(-8.35838714e-06 -4.56933602e-07 -1.80372192e-24 8.35838714e-06 -4.65258356e-26 -3.91108142e-43)
(-5.76814207e-06 -3.68778415e-07 1.09768547e-24 5.76814207e-06 3.30765838e-26 -2.08891072e-43)
(-3.70676376e-06 -2.86425973e-07 -3.41566333e-24 3.70676376e-06 -1.2389487e-25 -3.14742366e-42)
(-2.13928659e-06 -2.10326308e-07 1.93717134e-24 2.13928659e-06 8.90355859e-26 -1.75415148e-42)
(-1.02878136e-06 -1.40634727e-07 -1.38711456e-24 1.02878136e-06 -8.82682505e-26 -1.87025817e-42)
(-3.37528858e-07 -7.74291457e-08 -9.91017085e-27 3.37528858e-07 -1.05352785e-27 -2.90972088e-46)
(-2.6767996e-08 -2.08928701e-08 -2.5380031e-25 2.6767996e-08 -8.39524858e-26 -2.12150362e-42)
(-5.61058429e-08 2.87811451e-08 1.83177139e-21 5.61058429e-08 -3.74422827e-23 -6.31218815e-34)
(-3.84141802e-07 7.15786583e-08 1.12900525e-19 3.84141802e-07 -9.63614389e-21 -3.39503083e-32)
(-9.6993139e-07 1.07729338e-07 3.48486991e-19 9.6993139e-07 -1.81093111e-20 -1.25196866e-31)
(-1.7742033e-06 1.37603575e-07 2.3207446e-19 1.7742033e-06 -8.30889151e-21 -3.37261751e-32)
(-2.75949852e-06 1.61496135e-07 -3.03405603e-21 2.75949852e-06 3.77928919e-23 -6.72113736e-34)
(-3.88931313e-06 1.79491639e-07 9.83759366e-24 3.88931313e-06 -1.96737323e-25 -2.60084244e-41)
(-5.12658384e-06 1.91429615e-07 1.79289564e-24 5.12658384e-06 -5.25099199e-26 -7.43044201e-43)
(-6.43279334e-06 1.96966622e-07 4.43005835e-21 6.43279334e-06 -3.69556427e-23 -7.13735653e-34)
(-7.7663844e-06 1.9545459e-07 5.28911975e-19 7.7663844e-06 -3.37445473e-21 -3.66047085e-32)
(-9.08120003e-06 1.85888282e-07 5.61100755e-19 9.08120003e-06 -1.86724839e-21 -3.54933028e-32)
(-1.03234178e-05 1.66903179e-07 -5.50396736e-21 1.03234178e-05 2.04950077e-23 -7.39358031e-34)
(-1.14312901e-05 1.36813772e-07 -1.39651822e-23 1.14312901e-05 6.36963752e-26 -1.71557519e-41)
(-1.23300964e-05 9.38046604e-08 -1.63072905e-23 1.23300964e-05 -1.39907928e-25 -2.20369421e-41)
(-1.29384713e-05 3.64521838e-08 3.19959965e-23 1.29384713e-05 1.81371086e-25 -8.08544027e-41)
(-1.31602612e-05 -3.48950631e-08 -1.57222494e-23 1.31602612e-05 1.49541271e-25 -2.05802289e-41)
(-1.29122804e-05 -1.19307376e-07 5.482158e-23 1.29122804e-05 1.2839039e-25 -2.33133007e-40)
(-1.20990524e-05 -2.12261328e-07 -3.83416577e-23 1.20990524e-05 -3.82763393e-25 -1.21848096e-40)
(-1.07220876e-05 -3.07515232e-07 -3.69870949e-23 1.07220876e-05 -5.74621627e-25 -1.28287894e-40)
(-8.71432147e-06 -3.86103314e-07 4.64542422e-23 8.71432147e-06 1.00078642e-24 -2.50509444e-40)
(-6.3432999e-06 -4.34090618e-07 -1.04078449e-23 6.3432999e-06 -2.25676953e-25 -1.70607034e-41)
(-3.62224359e-06 -4.62589657e-07 -5.18177438e-25 3.62224359e-06 -9.01828464e-26 -2.10413517e-42)
(-1.16392996e-06 -3.15820697e-07 -2.4411606e-22 1.16392996e-06 -3.38607343e-23 -5.07529941e-38)
(-5.51825777e-07 -1.68989981e-07 -1.36692853e-21 5.51825777e-07 -1.96840164e-22 -3.30664261e-36)
(-6.84258577e-07 -2.55573865e-07 -1.00187078e-21 6.84258577e-07 -1.78084155e-22 -1.43666383e-36)
(-1.02534514e-06 -5.35266517e-07 1.67179241e-21 1.02534514e-06 3.95687493e-22 -2.61859893e-36)
(-1.66723306e-06 -1.21353119e-06 -2.85091478e-21 1.66723306e-06 -8.90656889e-22 -4.39079814e-36)
(-2.49584328e-06 -2.45376326e-06 -3.36638937e-21 2.49584328e-06 -1.35897053e-21 -3.80319233e-36)
(-3.50892525e-06 -4.49264412e-06 4.02164164e-21 3.50892525e-06 1.94012718e-21 -3.50435472e-36)
(-4.90611627e-06 -7.95126486e-06 -4.85013173e-21 4.90611627e-06 -2.68287452e-21 -3.36826924e-36)
(-6.85025327e-06 -1.36367457e-05 5.49361572e-21 6.85025327e-06 3.47792705e-21 -2.77456273e-36)
(-9.44146469e-06 -2.24264858e-05 6.05522324e-21 9.44146469e-06 3.81929635e-21 -2.10874852e-36)
(-1.26622251e-05 -3.48500192e-05 -9.44000715e-21 1.26622251e-05 -6.01997342e-21 -3.37050418e-36)
(-1.64508916e-05 -5.07230745e-05 1.08464636e-20 1.64508916e-05 7.91939603e-21 -3.41311559e-36)
(-2.03504373e-05 -6.76767331e-05 -7.17221348e-21 2.03504373e-05 -5.36526318e-21 -1.14247267e-36)
(-2.3399523e-05 -8.2915429e-05 -7.2344968e-21 2.3399523e-05 -6.2906436e-21 -1.06274862e-36)
(-2.52915826e-05 -9.60690479e-05 -7.42324229e-21 2.52915826e-05 -6.67055355e-21 -9.91912349e-37)
(-2.61695079e-05 -0.000107921635 -7.26033992e-21 2.61695079e-05 -6.78121568e-21 -8.84271814e-37)
(-2.63224432e-05 -0.00011978168 -1.67413874e-20 2.63224432e-05 -1.24820231e-20 -3.566123e-36)
(-2.62475432e-05 -0.000133936088 4.7833595e-21 2.62475432e-05 5.28291829e-21 -3.62584833e-37)
(-2.81189991e-05 -0.000157014627 -3.52324492e-21 2.81189991e-05 1.60004298e-21 5.64959415e-38)
(-3.69144063e-05 -0.000194973021 -4.16334901e-21 3.69144063e-05 -3.48496073e-21 -1.53228286e-37)
(-5.87933137e-05 -0.000249628172 4.25086029e-21 5.87933137e-05 3.40524609e-21 -1.15803802e-37)
(-0.00010810968 -0.00032932623 -4.28360439e-21 0.00010810968 3.21864653e-21 6.8322441e-38)
(-0.000214439152 -0.000433025056 -9.9448602e-21 0.000214439152 2.26904806e-21 -2.69939401e-39)
(-0.000417907985 -0.000512532529 5.43958009e-21 0.000417907985 -8.31118562e-21 1.43601736e-37)
(-0.000590812923 -0.000385986574 -4.0055959e-22 0.000590812923 2.68513119e-21 1.00330588e-38)
(-0.000481353458 -0.000151656318 -1.55243463e-23 0.000481353458 -3.22150975e-24 -1.78804077e-41)
(-0.000230957967 -2.80478631e-05 2.39538514e-22 0.000230957967 1.42898674e-23 -2.4782736e-40)
(-0.000100754941 -4.27627403e-06 -3.14313599e-26 0.000100754941 -6.08473395e-28 -9.80522869e-48)
(-0.000908808077 -1.1070659e-05 -3.67388068e-26 0.000908808077 2.19232241e-26 -1.35272227e-43)
(-0.000799188659 1.96749836e-05 -1.34890558e-23 0.000799188659 -5.61757159e-22 3.94878907e-40)
(-0.00048595686 6.22413531e-05 9.40832162e-21 0.00048595686 -1.02637432e-21 -3.42204715e-35)
(-8.54735007e-05 1.99393666e-05 1.05109215e-18 8.54735007e-05 1.25299565e-20 -1.28319239e-32)
(-2.30697708e-06 8.94626145e-06 -2.55684873e-19 2.30697708e-06 3.17261808e-19 -1.73213785e-32)
(-1.69002501e-05 3.53013024e-05 1.98420591e-20 1.69002501e-05 -1.3951919e-20 -5.0652727e-35)
(-1.03335628e-05 2.90711451e-05 -6.66890929e-23 1.03335628e-05 4.83863138e-23 -6.53898292e-40)
(-6.52837099e-06 2.63745284e-05 2.00417588e-21 6.52837099e-06 -1.56962827e-21 -2.389624e-37)
(-4.86761276e-06 2.42896604e-05 -6.11877463e-19 4.86761276e-06 5.02996275e-19 -2.53306568e-32)
(-4.37462471e-06 2.28034073e-05 -6.66903025e-19 4.37462471e-06 5.50936252e-19 -3.22334257e-32)
(-4.51294495e-06 2.1854087e-05 2.64636369e-21 4.51294495e-06 -2.15823735e-21 -5.23543913e-37)
(-4.99310477e-06 2.26399112e-05 -3.00582563e-24 4.99310477e-06 2.67679753e-24 -6.95200753e-43)
(-5.74760383e-06 2.50383012e-05 1.75971196e-22 5.74760383e-06 -1.39802252e-22 -5.83454228e-39)
(-6.93256309e-06 2.9755283e-05 -1.92784605e-22 6.93256309e-06 -3.77064691e-22 5.40179459e-39)
(-8.77967081e-06 3.74941095e-05 -1.69529145e-20 8.77967081e-06 1.31129704e-20 -1.19257546e-35)
(-1.14876626e-05 4.85085862e-05 1.40470198e-23 1.14876626e-05 -1.00001451e-23 -5.93736744e-42)
(-1.52878044e-05 6.18970171e-05 -1.6901511e-20 1.52878044e-05 1.32373977e-20 -7.23071169e-36)
(-2.10117012e-05 7.66192014e-05 -4.91573903e-23 2.10117012e-05 3.76255578e-23 -6.02950568e-41)
(-2.95095246e-05 9.16859996e-05 1.2766982e-20 2.95095246e-05 -9.30805051e-21 -2.59206892e-36)
(-4.14938812e-05 0.000105214452 -1.55692051e-20 4.14938812e-05 1.06032429e-20 -3.13726825e-36)
(-5.75420199e-05 0.00011558263 1.817338e-20 5.75420199e-05 -1.12829793e-20 -3.57680202e-36)
(-7.84655702e-05 0.000122170674 -6.74777148e-22 7.84655702e-05 3.75871245e-21 -2.46532208e-38)
(-0.00010392929 0.000124162263 -2.7193515e-20 0.00010392929 1.51980465e-20 -5.97303718e-36)
(-0.000132551405 0.000119875368 -3.14668735e-20 0.000132551405 1.21764798e-20 -6.42799847e-36)
(-0.000163430483 0.00010863386 -3.70832246e-20 0.000163430483 1.05924124e-20 -7.65738869e-36)
(-0.000197201772 9.08497877e-05 1.75364726e-21 0.000197201772 -3.91494559e-21 1.69663472e-40)
(-0.000243706767 7.2623644e-05 -3.6091874e-18 0.000243706767 5.20717637e-19 -5.22882446e-32)
(-0.000325451172 5.48956607e-05 -4.04859308e-18 0.000325451172 3.41335182e-19 -5.011538e-32)
(-0.000449418302 4.70873559e-05 3.73580967e-25 0.000449418302 -1.0097604e-25 -3.75712889e-43)
(-0.000577882841 4.5637153e-05 -1.30238149e-22 0.000577882841 5.0781268e-24 -2.93518368e-41)
(-0.000686274364 4.04920907e-05 1.39757108e-22 0.000686274364 -4.08807961e-24 -2.84609755e-41)
(-0.000777100846 3.57913082e-05 -7.42249761e-18 0.000777100846 1.68682468e-19 -7.08961421e-32)
(-0.00085034323 3.08526698e-05 -7.80287147e-18 0.00085034323 1.39498771e-19 -7.1600252e-32)
(-0.000907568158 2.61377936e-05 -5.52921121e-22 0.000907568158 7.81999368e-24 -3.36858136e-40)
(-0.000949700474 2.15484531e-05 3.69326926e-22 0.000949700474 -4.10132911e-24 -1.43626718e-40)
(-0.000977799491 1.71090989e-05 3.20416968e-23 0.000977799491 -2.73002146e-25 -1.04998033e-42)
(-0.000992818006 1.28253153e-05 -3.38603228e-23 0.000992818006 2.11415505e-25 -1.15481524e-42)
(-0.000995804767 8.74650188e-06 -6.02653e-25 0.000995804767 5.92525095e-27 -1.39343437e-43)
(-0.000987841217 4.91638805e-06 9.76260457e-18 0.000987841217 -2.24769083e-20 -9.64815417e-32)
(-0.000970040008 1.36371275e-06 9.91030798e-18 0.000970040008 -5.21716699e-21 -1.01247575e-31)
(-0.000943510494 -1.87948025e-06 4.21845622e-24 0.000943510494 -2.05228589e-23 4.27267773e-43)
(-0.000909442072 -4.77808051e-06 -2.76797679e-23 0.000909442072 2.00999114e-23 -5.53498445e-43)
(-0.000868516755 -7.31318699e-06 -1.043623e-22 0.000868516755 -4.49456309e-25 -1.26883958e-41)
(-0.000822506607 -9.4848298e-06 2.11609791e-23 0.000822506607 1.27115337e-25 -7.56654686e-43)
(-0.000772541191 -1.12947109e-05 3.36155196e-22 0.000772541191 -1.51851319e-23 -1.45758521e-40)
(-0.000719657358 -1.27505267e-05 -3.52162524e-22 0.000719657358 -2.74652518e-24 -1.73406502e-40)
(-0.00066482313 -1.38658877e-05 -1.09942899e-17 0.00066482313 -1.14977239e-19 -1.81814377e-31)
(-0.000608932294 -1.46588114e-05 -1.08087335e-17 0.000608932294 -1.30154584e-19 -1.91858299e-31)
(-0.000552801716 -1.51504465e-05 -1.21512069e-22 0.000552801716 -1.66239875e-24 -2.67097263e-41)
(-0.000497170967 -1.5363822e-05 0 0.000497170967 0 0)
(-0.00044270379 -1.53226983e-05 1.33039066e-23 0.00044270379 2.29133478e-25 -3.99802149e-43)
(-0.000389990135 -1.50511021e-05 -9.92958895e-18 0.000389990135 -1.90454308e-19 -2.52818532e-31)
(-0.000339548148 -1.45731481e-05 -1.87064418e-17 0.000339548148 -3.98583471e-19 -1.03057834e-30)
(-0.000291826091 -1.39128893e-05 -8.67727325e-18 0.000291826091 -2.05173193e-19 -2.58013503e-31)
(-0.000247203614 -1.30945976e-05 -1.48410183e-23 0.000247203614 1.27450196e-24 -9.45623346e-43)
(-0.000205991682 -1.21433284e-05 3.59519233e-23 0.000205991682 9.54840494e-25 -6.31981623e-42)
(-0.000168430982 -1.10856563e-05 3.66689256e-25 0.000168430982 -7.38700023e-26 -2.98482831e-44)
(-0.000134689408 -9.95000105e-06 -1.87959002e-23 0.000134689408 -1.75700781e-24 -2.62521788e-42)
(-0.000104860348 -8.76602106e-06 4.57607799e-24 0.000104860348 1.8609669e-25 -2.21039949e-43)
(-7.89657418e-05 -7.5619971e-06 -3.91526422e-24 7.89657418e-05 -1.85178419e-25 -1.94125877e-43)
(-5.69662874e-05 -6.36169823e-06 3.46458082e-24 5.69662874e-05 1.90988391e-25 -2.10709188e-43)
(-3.87764913e-05 -5.1824697e-06 -2.94305628e-24 3.87764913e-05 -1.88899166e-25 -2.47850354e-43)
(-2.42805235e-05 -4.0363291e-06 -9.08587404e-24 2.42805235e-05 -1.00209466e-24 -3.41244333e-42)
(-1.33367992e-05 -2.93429918e-06 7.15778617e-24 1.33367992e-05 7.8324827e-25 -3.82696086e-42)
(-5.77682032e-06 -1.88780091e-06 -1.78276285e-25 5.77682032e-06 8.33971754e-26 -2.46099226e-45)
(-1.40373644e-06 -9.0729858e-07 8.04477022e-26 1.40373644e-06 -1.14875631e-27 -4.7983467e-44)
(-2.32772985e-12 4.91375429e-10 -1.70824335e-25 2.32772985e-12 -1.26844678e-24 -1.2170972e-41)
(-1.33515964e-06 8.31843859e-07 -8.82718951e-19 1.33515964e-06 2.71128946e-19 -5.83594253e-31)