/*--------------------------------*- C++ -*----------------------------------*\
| =========                 |                                                 |
| \\      /  F ield         | OpenFOAM: The Open Source CFD Toolbox           |
|  \\    /   O peration     | Version:  2506                                  |
|   \\  /    A nd           | Website:  www.openfoam.com                      |
|    \\/     M anipulation  |                                                 |
\*---------------------------------------------------------------------------*/
FoamFile
{
    version     2.0;
    format      ascii;
    arch        "LSB;label=32;scalar=64";
    class       volSymmTensorField;
    location    "2644";
    object      Tij3;
}
// * * * * * * * * * * * * * * * * * * * * * * * * * * * * * * * * * * * * * //

dimensions      [0 0 0 0 0 0 0];

internalField   nonuniform List<symmTensor> 
15600
(
(7.32052334e-07 7.91137125e-10 -1.07408329e-28 7.32048173e-07 -8.09369377e-27 8.95396199e-47)
(8.74035573e-07 -2.98599217e-09 -1.78911811e-25 8.74308056e-07 3.7459196e-25 1.96592744e-43)
(4.17716531e-07 1.76890585e-09 -3.09796355e-26 4.16953857e-07 -1.29747866e-25 4.25962341e-44)
(1.13236528e-09 -2.42168663e-10 1.3481636e-22 1.09663924e-09 3.4872508e-23 1.99352484e-35)
(1.08927717e-07 1.51777275e-09 -1.59577895e-21 1.05117982e-07 7.58264643e-22 2.9174502e-35)
(1.18008261e-07 8.58599769e-10 5.06256479e-24 1.14517005e-07 -3.74005966e-24 3.41752519e-40)
(7.28145293e-08 2.39428297e-10 2.60868209e-24 7.13208155e-08 -2.05914131e-24 1.53409777e-40)
(6.26066722e-08 1.74673273e-10 6.07557419e-23 6.10498444e-08 1.28205341e-23 6.15712097e-38)
(5.49734245e-08 1.08113431e-10 -2.52470181e-22 5.37539472e-08 4.12470714e-22 4.33225814e-36)
(4.95817033e-08 9.00714317e-11 -4.01343579e-22 4.85029842e-08 3.96748835e-22 6.50589185e-36)
(4.51086538e-08 6.83023634e-11 -6.9192786e-23 4.43677449e-08 -1.51721913e-23 1.11237596e-37)
(4.50110923e-08 5.98052094e-11 -9.64611406e-28 4.44332346e-08 7.88984158e-28 3.47285386e-47)
(4.8064677e-08 5.02900959e-11 3.99910953e-25 4.76189737e-08 1.1341097e-25 3.5949804e-42)
(5.58070843e-08 4.33466195e-11 1.35615401e-23 5.54456815e-08 -1.01324911e-23 5.15104589e-39)
(6.99912051e-08 4.46642477e-11 -1.29591848e-23 6.96341463e-08 1.01867291e-23 3.89205027e-39)
(9.22433438e-08 5.92204287e-11 1.0330959e-25 9.17830475e-08 1.70858352e-26 1.18863749e-43)
(1.21185487e-07 1.06552499e-10 -6.38401329e-24 1.20385824e-07 3.71612544e-24 4.51320445e-40)
(1.54753524e-07 1.69318514e-10 -7.25701828e-24 1.53587323e-07 4.18130611e-24 4.54578478e-40)
(1.91781823e-07 2.65641244e-10 2.0341896e-23 1.90187412e-07 -9.45373833e-24 2.63007088e-39)
(2.27900634e-07 3.7602489e-10 1.621616e-23 2.26016855e-07 -1.51382584e-23 2.17159614e-39)
(2.57996449e-07 4.73079483e-10 1.0138489e-23 2.5608803e-07 -8.14902904e-24 6.58905814e-40)
(2.82141476e-07 4.3884633e-10 -9.88730799e-24 2.80760064e-07 1.06670116e-23 7.53023417e-40)
(3.02939208e-07 2.88101591e-10 -5.20820831e-23 3.02241942e-07 2.10336012e-23 1.04243368e-38)
(3.17062423e-07 5.70518736e-11 -1.12811104e-24 3.16957799e-07 -1.66833969e-24 1.27908831e-41)
(3.24498266e-07 -2.72723907e-10 -5.39670549e-23 3.24864518e-07 1.63656464e-23 9.79509181e-39)
(3.31700852e-07 -1.01825906e-09 1.51514042e-22 3.32630001e-07 3.21572906e-22 3.80930088e-37)
(3.33082122e-07 -1.48563362e-10 -1.61327748e-21 3.33160898e-07 7.50207395e-22 9.5013713e-36)
(4.36236655e-07 -2.33746925e-09 -1.78840343e-21 4.36700356e-07 -7.42329197e-23 7.34648794e-36)
(7.56659596e-07 -3.63707728e-09 3.00267134e-23 7.5686722e-07 -5.49401097e-22 3.9982536e-37)
(1.1546645e-06 -2.90218068e-09 -1.29392566e-31 1.15478145e-06 2.18081704e-30 4.13219292e-54)
(1.52770055e-06 -3.67980239e-09 -5.45712651e-23 1.52781035e-06 9.18594968e-22 5.54158493e-37)
(1.89185604e-06 -3.55633181e-09 -4.56586248e-21 1.89193918e-06 2.19264364e-21 1.35453789e-35)
(2.22635032e-06 -3.66145713e-09 -4.45891238e-21 2.22641902e-06 2.14635628e-22 8.9453397e-36)
(2.53084947e-06 -3.58010553e-09 7.3817927e-23 2.53090448e-06 -1.22407436e-21 5.9415751e-37)
(2.8007171e-06 -3.49695939e-09 4.44615835e-25 2.80076155e-06 -2.85567247e-27 7.05853776e-44)
(3.03437537e-06 -3.33757545e-09 4.90086582e-25 3.03441055e-06 -2.56760616e-27 7.91563659e-44)
(3.22963763e-06 -3.14076733e-09 -5.05525475e-25 3.22966491e-06 2.07739662e-26 7.92630561e-44)
(3.38548755e-06 -2.89859764e-09 8.3951479e-23 3.38550803e-06 -1.60723856e-21 7.65135889e-37)
(3.50164985e-06 -2.6332688e-09 6.8719855e-21 3.50166465e-06 -3.64933181e-21 1.7286976e-35)
(3.57872627e-06 -2.34828847e-09 6.54900034e-21 3.57873638e-06 -3.3629921e-22 1.20078872e-35)
(3.61785605e-06 -2.05266669e-09 -8.46490722e-23 3.6178624e-06 1.73694898e-21 8.35954469e-37)
(3.62085522e-06 -1.74748604e-09 -8.83029727e-26 3.62085864e-06 -3.06942812e-26 2.41249224e-45)
(3.59008284e-06 -1.44358295e-09 -2.46025723e-25 3.59008411e-06 -1.13499613e-26 1.6894498e-44)
(3.5282992e-06 -1.14810982e-09 5.82167317e-25 3.52829904e-06 1.1411437e-26 9.60907204e-44)
(3.43859909e-06 -8.6558543e-10 1.06816008e-25 3.43859812e-06 -3.60000509e-26 3.69721761e-45)
(3.32430753e-06 -5.99688816e-10 -7.90725417e-23 3.32430628e-06 2.17354236e-21 1.42312122e-36)
(3.18886986e-06 -3.53217352e-10 -8.84217076e-21 3.18886879e-06 4.01528669e-21 2.9585591e-35)
(3.03576033e-06 -1.28077487e-10 -8.44350879e-21 3.03575983e-06 -3.57819729e-22 2.35132152e-35)
(2.86840666e-06 7.45305483e-11 6.76476382e-23 2.86840702e-06 -2.09714996e-21 1.5349751e-36)
(2.69012931e-06 2.54193764e-10 -1.27212937e-25 2.69013077e-06 -1.66014897e-26 6.11547634e-45)
(2.50410228e-06 4.1083833e-10 3.1244181e-25 2.50410503e-06 -7.80564377e-27 3.90099418e-44)
(2.31332965e-06 5.44763877e-10 -4.93737433e-23 2.31333381e-06 2.08349117e-21 1.87764396e-36)
(2.12062687e-06 6.56601576e-10 -8.46414335e-21 2.12063251e-06 3.1797167e-21 3.85745801e-35)
(1.92860829e-06 7.47149779e-10 -8.09017424e-21 1.92861544e-06 -8.83545537e-22 3.43238646e-35)
(1.73967861e-06 8.17413073e-10 3.70883161e-23 1.73968727e-06 -1.86087425e-21 1.99139412e-36)
(1.55601999e-06 8.68418541e-10 1.95269394e-27 1.55603012e-06 -5.33026917e-27 2.07281729e-47)
(1.37956781e-06 9.01477834e-10 1.68179286e-27 1.37957931e-06 2.76924894e-27 7.59927448e-48)
(1.21197315e-06 9.17862236e-10 -4.77642889e-26 1.21198592e-06 -3.71999067e-27 1.89338443e-45)
(1.05455027e-06 9.19282551e-10 -1.97240021e-26 1.05456418e-06 -2.1016968e-27 3.73009073e-46)
(9.08230589e-07 9.07922889e-10 -5.09060466e-27 9.08245505e-07 3.55949266e-27 4.25360189e-47)
(7.73572902e-07 8.85377468e-10 1.63328938e-26 7.73588707e-07 -3.1276565e-27 3.57722357e-46)
(6.50816465e-07 8.54288438e-10 -3.63574753e-26 6.5083307e-07 1.36062247e-27 2.0342311e-45)
(5.40010052e-07 8.14597328e-10 -3.73644508e-26 5.40027342e-07 1.70650024e-27 2.59121328e-45)
(4.41079188e-07 7.68252687e-10 5.1521707e-26 4.41097059e-07 -1.0317135e-27 6.0211591e-45)
(3.53836481e-07 7.14691805e-10 3.51584404e-30 3.53854789e-07 3.2252257e-27 2.93963559e-47)
(2.77922817e-07 6.56679455e-10 2.9771166e-26 2.77941473e-07 -2.13118513e-27 3.2067137e-45)
(2.12815082e-07 5.94212596e-10 -2.6078155e-26 2.12833988e-07 -3.18946663e-27 3.24101067e-45)
(1.57893432e-07 5.28659495e-10 3.26312895e-30 1.57912527e-07 2.15630416e-27 2.94444256e-47)
(1.124816e-07 4.60087114e-10 0 1.12500806e-07 0 0)
(7.58963331e-08 3.89099262e-10 0 7.59155656e-08 0 0)
(4.74482843e-08 3.16373656e-10 0 4.74674537e-08 0 0)
(2.64163246e-08 2.42491411e-10 1.26119928e-24 2.64353455e-08 -3.21211567e-22 3.90365215e-36)
(1.20378587e-08 1.68125942e-10 1.04965836e-21 1.20566843e-08 -3.78247967e-22 1.04338418e-34)
(3.53612545e-09 9.34337408e-11 1.16694916e-21 3.55472578e-09 1.25958357e-22 3.87648411e-34)
(1.53652982e-10 1.84887083e-11 9.80874815e-23 1.71996382e-10 1.11918866e-22 1.21654858e-34)
(1.17287096e-09 -5.64826725e-11 -1.18349818e-23 1.19091142e-09 -6.75840801e-23 4.02872464e-36)
(5.91286414e-09 -1.31096161e-10 1.95358378e-26 5.93053557e-09 3.09752648e-28 6.46390593e-44)
(1.37084051e-08 -2.04633048e-10 1.38242439e-26 1.37255975e-08 -6.08467421e-28 1.39528186e-44)
(2.38890399e-08 -2.76424624e-10 2.38013238e-23 2.39056287e-08 3.26853707e-22 4.5008707e-36)
(3.57551387e-08 -3.45307129e-10 -1.84518281e-21 3.5770946e-08 4.3166229e-22 1.00005524e-34)
(4.85537186e-08 -4.10307991e-10 -2.34565551e-21 4.85685259e-08 -4.41308268e-22 1.17704716e-34)
(6.14353317e-08 -4.69064176e-10 -3.34076779e-23 6.14488234e-08 -5.2376486e-22 4.48722781e-36)
(7.34523657e-08 -5.20769264e-10 7.30266901e-26 7.34641819e-08 -8.50671409e-27 7.34693551e-44)
(8.34911436e-08 -5.60228626e-10 7.32467171e-26 8.35007651e-08 -3.99358554e-28 6.4259882e-44)
(9.03878678e-08 -5.89020833e-10 -1.57783894e-25 9.03947811e-08 9.23566886e-28 2.7543264e-43)
(9.28429495e-08 -5.95012933e-10 -4.14485569e-25 9.28465076e-08 2.76839683e-26 1.8571186e-42)
(9.00193273e-08 -5.97489367e-10 5.7753899e-25 9.00189506e-08 -2.84052745e-27 3.7053423e-42)
(8.08174269e-08 -5.45119368e-10 -1.61846899e-25 8.08124413e-08 -4.56516699e-26 3.51191144e-43)
(6.59725465e-08 -5.17487715e-10 -1.43470971e-25 6.59617584e-08 4.12777256e-26 3.36419224e-43)
(4.54948814e-08 -3.76639161e-10 4.22115655e-25 4.54798438e-08 6.1485465e-27 3.91857805e-42)
(2.45711635e-08 -3.24719e-10 -3.54662535e-25 2.45469747e-08 -2.78966594e-26 5.16256712e-42)
(6.09651545e-09 -1.47494724e-10 6.55814523e-26 6.06158757e-09 1.12734301e-26 7.32782276e-43)
(1.64117458e-09 2.19950199e-12 -5.19937338e-28 1.64054223e-09 -2.25027098e-27 3.24940117e-45)
(7.69700325e-09 4.66880575e-11 -2.40893214e-25 7.71959692e-09 1.26811184e-24 2.16344044e-40)
(5.26179425e-09 -2.04157737e-10 1.04897992e-23 5.07037905e-09 2.13527969e-24 2.21888999e-38)
(1.77182196e-09 -1.39604281e-10 -8.50313232e-24 1.56177879e-09 -2.07103259e-24 4.56520415e-38)
(2.12444332e-10 8.0990292e-11 -9.62693808e-24 3.10279366e-10 -4.00545606e-24 4.36646724e-37)
(6.56859909e-09 3.76484283e-10 -2.16279694e-23 7.40041433e-09 -5.98307917e-24 7.42605507e-38)
(2.56753816e-08 6.52073589e-10 3.34040361e-23 2.7593988e-08 1.7995949e-23 5.41211662e-38)
(6.91034353e-08 7.52262451e-10 -4.82843361e-23 7.19276085e-08 -2.88724949e-23 4.49100541e-38)
(1.54920231e-07 6.31665745e-10 -4.07100567e-23 1.57834619e-07 -1.41099119e-23 1.19280573e-38)
(3.06140454e-07 7.21269089e-11 9.11678181e-23 3.06534254e-07 5.00518244e-23 3.53128311e-38)
(5.40551987e-07 -9.24603594e-10 -1.33365348e-22 5.34804464e-07 -1.04933266e-22 5.35846364e-38)
(8.59333839e-07 -2.45696309e-09 9.87953727e-24 8.42690644e-07 -3.71094906e-24 1.29604768e-40)
(1.20362328e-06 -3.82200796e-09 -1.13371654e-22 1.17654408e-06 -9.41520439e-23 1.8272391e-38)
(1.5047792e-06 -4.9674642e-09 4.73579127e-23 1.46808403e-06 5.00226228e-23 3.20566677e-39)
(1.76198292e-06 -5.87500975e-09 4.46628527e-23 1.71606588e-06 5.08319662e-23 2.64677419e-39)
(1.99473423e-06 -6.59033299e-09 4.05586891e-23 1.93923226e-06 5.03691168e-23 2.14002458e-39)
(2.23384585e-06 -7.31109667e-09 -1.34117503e-22 2.1661063e-06 -6.71279542e-23 1.01577221e-38)
(2.53351878e-06 -8.2321206e-09 -4.69374047e-23 2.44770452e-06 -4.36202724e-23 1.6518632e-39)
(3.0626667e-06 -1.08568681e-08 -1.39719305e-22 2.93872604e-06 -1.53718633e-22 1.44682976e-38)
(3.95956754e-06 -1.67699001e-08 -8.26152896e-23 3.78047579e-06 -6.76944236e-23 2.94857962e-39)
(5.28004659e-06 -2.9455063e-08 6.8401001e-23 5.02910761e-06 6.24384317e-23 1.67128423e-39)
(7.39751269e-06 -5.96812436e-08 -1.86773495e-23 7.03430578e-06 -2.18647817e-23 1.16166392e-40)
(1.06557527e-05 -1.20165426e-07 -1.17562748e-22 1.01736922e-05 -7.46706072e-23 1.86505986e-39)
(1.46472063e-05 -2.07513065e-07 8.86309861e-24 1.41487515e-05 6.54182075e-24 8.51463007e-42)
(1.39481341e-05 -1.3159355e-07 2.3168399e-23 1.37843572e-05 -4.24143843e-23 1.67661314e-40)
(7.69428183e-06 -3.49319e-08 -3.13857745e-25 7.67477369e-06 1.05435654e-24 1.57175851e-43)
(2.49632059e-06 6.10507647e-09 1.32229226e-24 2.49732574e-06 7.72688915e-26 7.02631679e-43)
(8.39065143e-07 -2.46957319e-09 8.62651357e-28 8.38983296e-07 -3.68242164e-26 1.61692207e-45)
(3.66474253e-05 -9.5270127e-08 1.67807981e-27 3.66470677e-05 -6.5330369e-28 8.80906039e-50)
(3.67201072e-05 -2.75491837e-07 1.72263153e-23 3.67394738e-05 1.53116845e-23 1.45718495e-41)
(2.05706839e-05 8.45918187e-08 1.08573261e-21 2.05433134e-05 6.13087865e-21 1.88540159e-36)
(1.51706313e-06 2.16866999e-08 -3.05534443e-20 1.50846e-06 -4.73016023e-21 6.27806685e-34)
(1.73590549e-06 -2.52943149e-08 3.07007718e-20 1.81798431e-06 -2.99590997e-20 1.02256242e-33)
(2.98950264e-06 -1.46863336e-08 2.38662617e-21 3.05043272e-06 1.29876493e-21 2.4658764e-36)
(2.04993638e-06 -8.11298853e-09 -8.42404991e-23 2.09913333e-06 6.22456478e-23 5.28788758e-39)
(1.78753329e-06 -3.77996333e-09 -2.83546252e-21 1.82081217e-06 -7.73902803e-22 4.82764158e-36)
(1.60054296e-06 -2.88065794e-09 -3.09077605e-20 1.63239606e-06 1.81673674e-20 7.97630914e-34)
(1.47504107e-06 -1.97102112e-09 -2.68614073e-20 1.49791247e-06 2.17656641e-20 8.04408742e-34)
(1.38211369e-06 -1.71617619e-09 3.47202177e-21 1.40018095e-06 7.87515986e-22 9.16289844e-36)
(1.40930921e-06 -1.37178597e-09 2.41479765e-26 1.42239184e-06 -2.79399276e-26 9.61907641e-46)
(1.53522006e-06 -1.05116836e-09 2.06224879e-23 1.54456875e-06 5.84115918e-24 2.98982436e-40)
(1.80650753e-06 -7.82694543e-10 -4.54891539e-22 1.81318052e-06 3.41140174e-22 1.78645586e-37)
(2.27393469e-06 -6.02160303e-10 -2.90591199e-22 2.2789396e-06 1.40996732e-22 4.58482943e-38)
(2.97087686e-06 -1.06189427e-09 3.25344472e-23 2.9795359e-06 1.00432999e-23 3.89785706e-40)
(3.85413268e-06 -1.61718055e-09 -3.08107039e-22 3.86684145e-06 2.68841396e-22 4.33137067e-38)
(4.86891675e-06 -2.87836236e-09 9.11918575e-22 4.88950391e-06 -5.93651647e-22 2.42685812e-37)
(5.97896374e-06 -4.54954107e-09 -5.74744303e-22 6.00700603e-06 3.40126979e-22 7.44348373e-38)
(7.077881e-06 -6.65612434e-09 -5.28031237e-22 7.11169893e-06 4.77592959e-22 7.14334087e-38)
(8.07283182e-06 -6.42663687e-09 7.26347288e-22 8.09884619e-06 -5.2132186e-22 9.88706688e-38)
(8.98660463e-06 -4.51173881e-09 1.2814586e-22 9.00077043e-06 -4.59118028e-22 2.5303346e-38)
(9.8620363e-06 -1.28664716e-10 1.63599741e-21 9.86234587e-06 -7.43371933e-22 3.27406685e-37)
(1.06251779e-05 9.22389294e-09 5.02827668e-23 1.06084108e-05 7.30137761e-23 7.39049805e-40)
(1.12934724e-05 2.18702333e-08 7.40164232e-22 1.12643855e-05 -1.80486982e-22 5.14533515e-38)
(1.20034211e-05 1.04948195e-08 -8.56877982e-21 1.19938964e-05 -1.69302965e-20 2.996045e-35)
(1.320443e-05 9.66069091e-08 -1.44309676e-19 1.3150826e-05 -6.06945518e-21 1.57792621e-33)
(1.74005472e-05 6.00044954e-08 -1.62883329e-19 1.73843535e-05 3.08900707e-20 1.58286899e-33)
(2.65635266e-05 1.2182134e-07 -2.556536e-22 2.65469448e-05 2.81360381e-20 2.98355206e-35)
(3.70552673e-05 2.56482422e-07 5.12071973e-30 3.70299594e-05 -2.15523778e-28 1.25613898e-51)
(4.65329908e-05 3.06629215e-07 1.41045776e-21 4.65108846e-05 -4.42014193e-20 4.20902537e-35)
(5.52533479e-05 3.96205774e-07 -3.4357082e-19 5.52313891e-05 -7.45889206e-20 2.22664696e-33)
(6.2901936e-05 4.64100944e-07 -3.83365511e-19 6.28819052e-05 1.89771938e-20 2.34595629e-33)
(6.95231412e-05 5.29982288e-07 -2.4347415e-21 6.95051149e-05 5.42062827e-20 4.24200896e-35)
(7.50791432e-05 5.83876444e-07 3.19919789e-25 7.5063531e-05 5.70055652e-24 4.31717241e-43)
(7.95803501e-05 6.28255782e-07 6.77270755e-25 7.95673366e-05 -1.10260107e-24 2.13117014e-44)
(8.30275261e-05 6.60820081e-07 -4.85291175e-25 8.30172643e-05 -3.31303618e-24 1.34530656e-43)
(8.54433913e-05 6.81929729e-07 -3.00266542e-21 8.5435917e-05 6.92322667e-20 5.62868157e-35)
(8.68638836e-05 6.91222849e-07 5.0609014e-19 8.68591414e-05 1.28535988e-19 3.11939329e-33)
(8.73391925e-05 6.89515873e-07 5.36379288e-19 8.73370455e-05 -1.19446757e-20 3.29950506e-33)
(8.69281372e-05 6.77640518e-07 3.12681681e-21 8.6928383e-05 -7.14722155e-20 5.8957658e-35)
(8.57067985e-05 6.56569314e-07 1.46453002e-24 8.57091769e-05 -9.97228355e-25 3.78843728e-44)
(8.37383957e-05 6.27141759e-07 6.38554714e-24 8.37426034e-05 1.95164828e-24 5.26962209e-43)
(8.11186215e-05 5.90943342e-07 -6.52641776e-24 8.1124332e-05 1.90753056e-24 5.74821583e-43)
(7.79401788e-05 5.49461931e-07 -1.93967933e-24 7.79470558e-05 -2.05517453e-24 1.0036451e-43)
(7.42916696e-05 5.04111214e-07 3.24908549e-21 7.42993804e-05 -8.80015042e-20 1.04477225e-34)
(7.02606649e-05 4.56254664e-07 -6.21991113e-19 7.02688913e-05 -1.46462336e-19 5.78265222e-33)
(6.59321552e-05 4.07170542e-07 -6.31845017e-19 6.59406026e-05 2.66970453e-20 6.07420966e-33)
(6.13873512e-05 3.58021798e-07 -3.02026713e-21 6.13957547e-05 8.21357105e-20 1.10123328e-34)
(5.67028175e-05 3.09843345e-07 3.29792412e-24 5.67109462e-05 1.5021166e-24 2.29796889e-43)
(5.19499819e-05 2.6352371e-07 -3.20739023e-24 5.19576408e-05 -2.43595752e-25 1.98897206e-43)
(4.71948756e-05 2.1980426e-07 2.58053614e-21 4.72019063e-05 -8.12251233e-20 1.39994226e-34)
(4.24979493e-05 1.79280282e-07 -5.56587096e-19 4.25042301e-05 -1.21173529e-19 7.60976993e-33)
(3.79139688e-05 1.42398782e-07 -5.46111586e-19 3.79194134e-05 3.34158559e-20 7.90508327e-33)
(3.34919338e-05 1.09467493e-07 -2.27831644e-21 3.34964902e-05 7.0149043e-20 1.47124232e-34)
(2.927487e-05 8.06527567e-08 5.2219145e-26 2.92785179e-05 -2.04747957e-25 1.50593893e-45)
(2.52994091e-05 5.59935967e-08 4.79403577e-26 2.53021586e-05 -2.09837571e-25 1.81287328e-45)
(2.15951491e-05 3.53966771e-08 -2.44375413e-24 2.15970358e-05 -9.86064591e-26 2.76930456e-43)
(1.81838853e-05 1.86622276e-08 9.12738251e-25 1.81849664e-05 1.68667383e-25 4.7317804e-44)
(1.50792093e-05 5.5113406e-09 -2.91564128e-25 1.50795573e-05 -2.08872854e-26 5.66457517e-45)
(1.22871436e-05 -4.40642488e-09 1.32688321e-26 1.22868388e-05 8.81521168e-27 2.0613921e-47)
(9.80761928e-06 -1.14209777e-08 4.67468836e-25 9.80674814e-06 -1.6818552e-25 2.51820604e-44)
(7.63680533e-06 -1.59252978e-08 -1.64963762e-24 7.63545334e-06 6.11624645e-26 3.56852002e-43)
(5.76814549e-06 -1.82466177e-08 1.68540976e-26 5.76640116e-06 1.33100749e-25 3.12251106e-45)
(4.19236107e-06 -1.87860276e-08 9.04388785e-25 4.19030709e-06 -4.58407838e-26 1.95554071e-43)
(2.89668484e-06 -1.78541109e-08 -5.48810223e-25 2.89440189e-06 -3.37004415e-26 1.04445536e-43)
(1.8654056e-06 -1.58023213e-08 1.70769568e-24 1.86296347e-06 1.25453928e-25 1.57371183e-42)
(1.08105097e-06 -1.29067967e-08 -9.68478341e-25 1.07851308e-06 -8.97097495e-26 8.77075742e-43)
(5.2515739e-07 -9.42697712e-09 6.93439765e-25 5.22580049e-07 8.860598e-26 9.35129084e-43)
(1.78862116e-07 -5.59042546e-09 4.95352005e-27 1.76297228e-07 1.0549558e-27 1.45486044e-46)
(2.27865589e-08 -1.60420184e-09 1.37061363e-25 2.0282346e-08 5.93954725e-26 1.06075181e-42)
(3.67467515e-08 2.34311017e-09 -1.74119446e-21 3.43428167e-08 -2.93414671e-21 3.15609194e-34)
(2.0005975e-07 6.11190534e-09 -5.81162732e-20 1.97782039e-07 -6.61880205e-21 1.70029942e-32)
(4.92269401e-07 9.60995715e-09 -1.74365662e-19 4.90134663e-07 1.70189394e-20 6.26097554e-32)
(8.93750581e-07 1.27707679e-08 -1.14644214e-19 8.91769631e-07 4.22834517e-20 1.6863066e-32)
(1.38577664e-06 1.55561051e-08 2.19480735e-21 1.38395584e-06 2.1476268e-20 3.36057127e-34)
(1.95009315e-06 1.79273838e-08 -4.89617806e-24 1.94843845e-06 1.13871423e-24 1.30071424e-41)
(2.56816433e-06 1.98732552e-08 -8.89707006e-25 2.56668017e-06 3.86347475e-25 3.68245979e-43)
(3.22073106e-06 2.13711144e-08 -2.75914851e-21 3.21942233e-06 -3.37981984e-20 3.56868246e-34)
(3.88701945e-06 2.24412745e-08 -2.64943351e-19 3.8858899e-06 -3.06274834e-20 1.82827527e-32)
(4.54395991e-06 2.3065437e-08 -2.80125933e-19 4.54301563e-06 4.69368626e-20 1.77762704e-32)
(5.16465779e-06 2.33165449e-08 3.10458768e-21 5.16390385e-06 4.35910962e-20 3.6967844e-34)
(5.71827285e-06 2.31303723e-08 6.98685095e-24 5.71771918e-06 5.00346055e-25 8.57787596e-42)
(6.16748866e-06 2.27402023e-08 8.14983795e-24 6.16714266e-06 -1.31268584e-24 1.10560044e-41)
(6.47169305e-06 2.19048869e-08 -1.60029233e-23 6.47156962e-06 -2.28894784e-24 4.03621632e-41)
(6.58290095e-06 2.13814289e-08 7.85829007e-24 6.58301433e-06 2.55577158e-24 1.03636408e-41)
(6.45981209e-06 1.95829935e-08 -2.74229428e-23 6.46017397e-06 8.48202528e-25 1.16534324e-40)
(6.05474338e-06 1.9884366e-08 1.91874638e-23 6.05544107e-06 -8.23368546e-25 6.09240478e-41)
(5.36906416e-06 1.64623044e-08 1.84837096e-23 5.37000845e-06 1.68961221e-24 6.4143947e-41)
(4.36874665e-06 1.92751566e-08 -2.31892944e-23 4.37045469e-06 -3.19327355e-24 1.25313125e-40)
(3.19067702e-06 1.20798362e-08 5.20231069e-24 3.19233034e-06 4.46982879e-25 8.54096352e-42)
(1.84155496e-06 7.79856749e-09 1.7766424e-25 1.84354684e-06 1.36016448e-24 1.01975934e-42)
(6.06222254e-07 1.11012423e-08 1.21140381e-22 6.12246675e-07 2.89427595e-23 2.5376497e-38)
(2.84837502e-07 -5.18254039e-09 6.75103551e-22 2.81663321e-07 1.10156899e-22 1.65336172e-36)
(3.62518979e-07 -3.13980604e-09 4.88045238e-22 3.60173514e-07 1.44270775e-22 7.18331915e-37)
(5.87703302e-07 -1.4180312e-08 -8.05219965e-22 5.72898051e-07 -3.24300783e-22 1.30981062e-36)
(1.05714974e-06 -2.04562902e-08 1.49214191e-21 1.02737064e-06 2.69762282e-22 2.19263831e-36)
(1.80114754e-06 -2.8150897e-08 1.63216999e-21 1.74579499e-06 8.32934838e-22 1.9016037e-36)
(2.92776132e-06 -3.05360051e-08 -2.0778895e-21 2.84956792e-06 -8.6773909e-22 1.75217507e-36)
(4.77741948e-06 -3.1441767e-08 2.66148115e-21 4.67550513e-06 9.5474849e-22 1.68414603e-36)
(7.74562658e-06 -2.25068012e-08 -2.8846493e-21 7.65601836e-06 -1.54261444e-21 1.3882692e-36)
(1.22672561e-05 -8.1223491e-09 -3.04297669e-21 1.22286697e-05 -1.90878818e-21 1.05317484e-36)
(1.85737983e-05 1.71050271e-08 4.53289291e-21 1.8667954e-05 3.30369807e-21 1.68960545e-36)
(2.6592876e-05 4.38898779e-08 -5.80346555e-21 2.68635275e-05 -3.4521087e-21 1.7065578e-36)
(3.51384205e-05 7.56047197e-08 3.37013865e-21 3.56412775e-05 2.97816802e-21 5.71236337e-37)
(4.28239454e-05 8.9218782e-08 3.77584077e-21 4.34562329e-05 2.9370863e-21 5.30535244e-37)
(4.93783097e-05 9.89990147e-08 4.22820867e-21 5.01303971e-05 2.6691633e-21 5.02943778e-37)
(5.51758885e-05 1.10071887e-07 4.42491288e-21 5.60837496e-05 2.38613363e-21 4.54980619e-37)
(6.08900625e-05 1.22118485e-07 8.33393045e-21 6.20014758e-05 6.31228449e-21 1.77855176e-36)
(6.76325569e-05 1.42013778e-07 -2.73365978e-21 6.90818941e-05 -2.22576589e-21 1.81933415e-37)
(7.87791302e-05 1.74585773e-07 -6.64205126e-22 8.0728881e-05 2.11740879e-21 6.24047288e-38)
(9.75208433e-05 2.71823087e-07 1.76384302e-21 0.000100392252 2.11942736e-21 7.66141429e-38)
(0.000125555234 4.56349458e-07 -2.05377046e-21 0.000129430426 -1.78008205e-21 5.79019008e-38)
(0.000169232618 7.82356997e-07 -7.96390631e-22 0.000173999086 2.46667441e-21 3.90394707e-38)
(0.00023522081 1.31799239e-06 1.07998457e-21 0.000240543754 5.09777393e-21 1.13918902e-37)
(0.000322430147 1.11137671e-06 1.43299968e-21 0.000325156186 -4.51205591e-21 6.92948278e-38)
(0.000345295868 -4.05212732e-07 -5.78058504e-22 0.000344766405 1.19519695e-21 5.06284402e-39)
(0.000248837017 -2.98157671e-06 1.53320968e-23 0.000246958252 -4.47015915e-23 8.94020386e-42)
(0.000115219571 -1.11401239e-06 -1.18887679e-22 0.000114948996 -1.04784177e-23 1.2391368e-40)
(5.02655306e-05 -6.01876471e-07 1.56798253e-26 5.02144406e-05 5.34314259e-28 4.90261434e-48)
(0.000452712881 -6.82606423e-06 -9.5150815e-26 0.000452546578 5.53218751e-24 6.76361136e-44)
(0.000396536648 -7.43691419e-06 7.04710458e-24 0.000396902822 -2.80058764e-22 1.98605343e-40)
(0.00024313291 -1.37424381e-06 -8.20355586e-21 0.000243484936 -6.39258976e-20 1.71102357e-35)
(4.48826673e-05 -4.76800897e-07 -5.28035065e-19 4.51051247e-05 1.20937603e-20 6.21843463e-33)
(5.12563678e-06 -1.0339023e-08 1.66521741e-19 5.20582449e-06 -1.41394879e-19 9.23324064e-33)
(1.92775546e-05 9.72676131e-09 -2.03407335e-20 1.923692e-05 -9.65428122e-21 2.62279318e-35)
(1.51225695e-05 -1.93027614e-08 6.64643864e-23 1.52311774e-05 2.3214425e-23 3.26949146e-40)
(1.34619221e-05 1.24349533e-09 -9.64043783e-22 1.34518747e-05 8.23446869e-22 1.19480846e-37)
(1.23260113e-05 -2.44817447e-09 3.09207061e-19 1.23504444e-05 -2.46304466e-19 1.26654461e-32)
(1.16223968e-05 1.39741854e-09 3.37461555e-19 1.16078283e-05 -2.70796296e-19 1.6116608e-32)
(1.11903691e-05 3.82869902e-10 -1.27959514e-21 1.11866609e-05 1.13616646e-21 2.61772309e-37)
(1.16342761e-05 2.25549361e-09 1.64078478e-24 1.16138222e-05 -1.16973396e-24 3.49204041e-43)
(1.28899258e-05 4.2671957e-09 -1.86677183e-22 1.28527474e-05 -5.32776342e-23 2.91727114e-39)
(1.53288972e-05 7.08566634e-09 -1.68780987e-22 1.52680724e-05 -1.44101103e-22 3.21325211e-39)
(1.93266072e-05 1.18138232e-08 8.38547426e-21 1.92257039e-05 -6.68094623e-21 5.96326615e-36)
(2.5026531e-05 1.56593257e-08 -6.62822051e-24 2.48942827e-05 5.50329831e-24 2.97442516e-42)
(3.20806961e-05 2.54547168e-08 8.37946083e-21 3.18745748e-05 -6.73573712e-21 3.61536044e-36)
(4.01046092e-05 3.7027355e-08 1.52910359e-23 3.98345686e-05 -3.10442585e-23 3.01475284e-41)
(4.88237647e-05 5.70365213e-08 -6.3813878e-21 4.84693401e-05 4.72378789e-21 1.29603446e-36)
(5.76163609e-05 8.49487047e-08 7.82799814e-21 5.71855585e-05 -5.36220581e-21 1.56863412e-36)
(6.61980115e-05 1.40108856e-07 -8.66060259e-21 6.5635148e-05 6.53083881e-21 1.78840101e-36)
(7.48963185e-05 2.08043767e-07 2.44456188e-21 7.42484714e-05 1.92799796e-21 1.29004957e-37)
(8.39146723e-05 2.95929933e-07 1.42381223e-20 8.3207589e-05 -6.79005719e-21 2.97862446e-36)
(9.2979567e-05 4.26693294e-07 1.54514761e-20 9.22077907e-05 -7.62508553e-21 3.21407058e-36)
(0.000102395668 5.90121471e-07 1.81412704e-20 0.000101611148 -7.86281268e-21 3.8441589e-36)
(0.000113273271 5.3736986e-07 -1.93262646e-21 0.000112778144 -2.65339343e-21 9.55634812e-38)
(0.000132672415 1.6263649e-06 1.83696213e-18 0.000131703114 -2.81629662e-19 2.61443952e-32)
(0.00016980775 1.49704524e-06 2.04447928e-18 0.00016930272 -2.49254163e-19 2.50576967e-32)
(0.000228904385 2.37122676e-06 2.18014107e-25 0.000228407499 6.54497611e-24 1.87754092e-43)
(0.000291615862 3.92119443e-06 6.51816917e-23 0.000290996524 -4.33238773e-24 1.46759184e-41)
(0.000345133068 4.63637677e-06 -6.99318186e-23 0.00034458595 3.22080244e-24 1.42304878e-41)
(0.000390091448 5.61773205e-06 3.7134143e-18 0.000389573971 -1.19751962e-19 3.54480711e-32)
(0.000426368145 6.32349606e-06 3.90328635e-18 0.000425909279 -8.57462598e-20 3.5800126e-32)
(0.000454725323 6.93426773e-06 2.76570588e-22 0.000454325912 -3.88746055e-24 1.68429068e-40)
(0.000475596004 7.37258212e-06 -1.84727679e-22 0.00047526144 1.41540525e-24 7.1813359e-41)
(0.000489494416 7.6682309e-06 -1.60258814e-23 0.000489226066 3.66225182e-26 5.24990164e-43)
(0.000496883734 7.81238243e-06 1.69350647e-23 0.000496681892 4.02442426e-26 5.7740762e-43)
(0.000498281417 7.81901982e-06 1.86851296e-25 0.000498144062 -5.88008821e-24 6.96717186e-44)
(0.000494224329 7.69704176e-06 -4.8825391e-18 0.000494147715 -4.99095511e-20 4.82407706e-32)
(0.000485266426 7.4649719e-06 -4.9563408e-18 0.000485245437 -6.75391938e-20 5.06237876e-32)
(0.000471959514 7.13544634e-06 -2.22746891e-24 0.000471987942 -9.91308108e-24 2.16106835e-43)
(0.000454896064 6.72435347e-06 1.39820268e-23 0.000454966722 1.63977936e-23 9.9213764e-43)
(0.00043441548 6.2468242e-06 5.21340535e-23 0.00043452068 -4.71178624e-24 6.34419788e-42)
(0.000411402352 5.72812363e-06 -1.06339963e-23 0.000411534461 -6.81585511e-24 3.78327343e-43)
(0.000386419786 5.18490364e-06 -1.68054175e-22 0.000386571395 -1.37308766e-23 7.33215029e-41)
(0.000359984749 4.63218537e-06 1.76153115e-22 0.00036014889 1.80489303e-23 8.66935815e-41)
(0.00033257989 4.08323271e-06 5.49804266e-18 0.000332750214 1.81868928e-19 9.0907189e-32)
(0.000304650825 3.549422e-06 5.40519738e-18 0.000304821715 1.93071557e-19 9.59291495e-32)
(0.000276604792 3.04018104e-06 6.07647962e-23 0.000276771434 2.33649079e-24 1.33548632e-41)
(0.000248810454 2.56305332e-06 0 0.000248968863 0 0)
(0.000221598625 2.12372646e-06 -6.65278507e-24 0.000221745637 -2.95207103e-25 1.99901075e-43)
(0.000195263313 1.72617e-06 4.96536452e-18 0.000195396551 2.36750007e-19 1.26409266e-31)
(0.000170062699 1.37278725e-06 9.3541901e-18 0.000170180537 4.79992866e-19 5.15289171e-31)
(0.000146220098 1.06452591e-06 4.33903082e-18 0.000146321601 2.402078e-19 1.29006752e-31)
(0.00012392462 8.01073624e-07 7.41160057e-24 0.000124009487 -1.03261029e-24 4.54108475e-43)
(0.000103331197 5.8096711e-07 -1.7947746e-23 0.000103399693 -2.31819976e-24 3.16071349e-42)
(8.45598482e-05 4.01810719e-07 -1.4934336e-25 8.46127403e-05 -1.16018451e-24 1.59094642e-44)
(6.76945103e-05 2.6035935e-07 9.45076531e-24 6.77329777e-05 1.84352328e-25 1.32021201e-42)
(5.27821711e-05 1.52773215e-07 -2.31982206e-24 5.28077139e-05 6.53061011e-25 1.10519974e-43)
(3.98342284e-05 7.48327198e-08 1.95754821e-24 3.98485609e-05 1.93453498e-25 9.70629384e-44)
(2.88314236e-05 2.20195809e-08 -1.73215844e-24 2.88363416e-05 -1.97227762e-25 1.05354594e-43)
(1.97311165e-05 -9.96327186e-09 1.50986792e-24 1.97284533e-05 -4.02084063e-25 1.23925177e-43)
(1.2475347e-05 -2.55698699e-08 4.5726786e-24 1.24668457e-05 6.21823345e-25 1.70761875e-42)
(6.99335489e-06 -2.87102065e-08 -3.65936548e-24 6.98072153e-06 -4.63136391e-26 1.91593392e-42)
(3.20122891e-06 -2.33150523e-08 6.23940975e-26 3.18599071e-06 8.46236282e-26 3.49313205e-45)
(1.00107293e-06 -1.26893435e-08 -8.26190182e-26 9.84669534e-07 1.31044125e-25 2.39917335e-44)
(2.84557295e-07 3.87427917e-11 1.31090727e-25 2.68200366e-07 1.26988494e-24 6.07080429e-42)
(9.36783907e-07 1.22331928e-08 4.41929095e-19 9.21540627e-07 -2.71463475e-19 2.91797128e-31)
(2.83876854e-06 2.15515242e-08 8.84532647e-19 2.82555972e-06 -2.67900802e-19 3.02202348e-31)
(5.86770891e-06 2.60099397e-08 -5.90013288e-24 5.85728806e-06 1.15552083e-24 6.1692101e-42)
(9.89573217e-06 2.4442707e-08 1.58856282e-23 9.8885528e-06 -2.9803164e-25 2.55179602e-41)
(1.47911162e-05 1.5984835e-08 -4.24626485e-23 1.47874556e-05 6.18678794e-24 1.24474236e-40)
(2.04224933e-05 1.69705164e-10 2.36539633e-18 2.04224618e-05 -2.22974147e-19 2.76324249e-31)
(2.66624544e-05 -2.3068706e-08 5.50182043e-18 2.66660129e-05 -4.36226547e-19 1.14197931e-30)
(3.33893295e-05 -5.3905205e-08 3.12550823e-18 3.33963742e-05 -2.12797893e-19 2.93789884e-31)