/*--------------------------------*- C++ -*----------------------------------*\
| =========                 |                                                 |
| \\      /  F ield         | OpenFOAM: The Open Source CFD Toolbox           |
|  \\    /   O peration     | Version:  2506                                  |
|   \\  /    A nd           | Website:  www.openfoam.com                      |
|    \\/     M anipulation  |                                                 |
\*---------------------------------------------------------------------------*/
FoamFile
{
    version     2.0;
    format      ascii;
    arch        "LSB;label=32;scalar=64";
    class       volSymmTensorField;
    location    "2644";
    object      Tij4;
}
// * * * * * * * * * * * * * * * * * * * * * * * * * * * * * * * * * * * * * //

dimensions      [0 0 0 0 0 0 0];

internalField   nonuniform List<symmTensor> 
15600
(
(-7.33043932e-07 0 8.19597146e-29 -7.33043932e-07 -8.24683775e-27 -9.27871405e-47)
(-8.77695909e-07 0 1.78021852e-25 -8.77695909e-07 -3.75559206e-25 -1.9680677e-43)
(-4.19556098e-07 0 2.69508118e-27 -4.19556098e-07 -1.33657197e-25 -4.25962341e-44)
(-7.6301988e-10 0 -1.18702289e-22 -7.6301988e-10 3.34777185e-23 -1.99352486e-35)
(-1.07858686e-07 0 1.60270962e-21 -1.07858686e-07 -7.60292946e-22 -2.91745022e-35)
(-1.17310703e-07 0 -4.81591131e-24 -1.17310703e-07 4.215722e-24 -3.49203549e-40)
(-7.25379325e-08 0 -2.7777323e-24 -7.25379325e-08 1.84722153e-24 -1.53409723e-40)
(-6.20229914e-08 0 -1.87394708e-25 -6.20229914e-08 6.24512418e-23 -6.28830153e-38)
(-5.44456398e-08 0 3.19870997e-22 -5.44456398e-08 -3.35036517e-22 -3.94093858e-36)
(-4.90453359e-08 0 3.3944349e-22 -4.90453359e-08 -4.71097084e-22 -6.87434063e-36)
(-4.47007236e-08 0 -2.4387253e-24 -4.47007236e-08 -7.04730159e-23 -1.11237424e-37)
(-4.4677098e-08 0 8.7213115e-28 -4.4677098e-08 -9.02015591e-28 -3.52360591e-47)
(-4.78001853e-08 0 2.29666089e-26 -4.78001853e-08 4.14034507e-25 -3.59730902e-42)
(-5.5584411e-08 0 -1.30291098e-23 -5.5584411e-08 1.07963145e-23 -5.15105049e-39)
(-6.97663411e-08 0 1.2456924e-23 -6.97663411e-08 -1.08222111e-23 -3.90295955e-39)
(-9.1947646e-08 0 -9.56602192e-27 -9.1947646e-08 1.0360841e-25 -1.17743214e-43)
(-1.20631807e-07 0 4.24604852e-24 -1.20631807e-07 -6.4895942e-24 -4.9857299e-40)
(-1.5380919e-07 0 7.28906424e-24 -1.5380919e-07 -4.11703378e-24 -4.55632232e-40)
(-1.90284754e-07 0 -1.53920612e-23 -1.90284754e-07 1.62348811e-23 -2.63019974e-39)
(-2.25765407e-07 0 -2.00585658e-23 -2.25765407e-07 9.37897642e-24 -2.1717732e-39)
(-2.55169713e-07 0 -9.95065923e-24 -2.55169713e-07 8.36963739e-24 -6.62564718e-40)
(-2.78787109e-07 0 1.24271784e-23 -2.78787109e-07 -5.92069158e-24 -6.79691944e-40)
(-2.99183856e-07 0 4.91317568e-23 -2.99183856e-07 -2.65498025e-23 -1.04244312e-38)
(-3.1293354e-07 0 -2.94309297e-25 -3.1293354e-07 -1.97888588e-24 -1.27905986e-41)
(-3.19967634e-07 0 5.35303004e-23 -3.19967634e-07 -1.63901798e-23 -9.79515028e-39)
(-3.26902006e-07 0 -4.8070044e-24 -3.26902006e-07 3.52850822e-22 -3.80930088e-37)
(-3.27198894e-07 0 1.69396878e-21 -3.27198894e-07 -1.20542913e-23 -8.77043169e-36)
(-4.31165749e-07 0 1.73970745e-21 -4.31165749e-07 -6.85687632e-22 -8.10998911e-36)
(-7.54322675e-07 0 -4.4456536e-23 -7.54322675e-07 -5.47376424e-22 -3.99825357e-37)
(-1.15425995e-06 0 1.71301919e-31 -1.15425995e-06 2.17721862e-30 -4.13219334e-54)
(-1.52745946e-06 0 6.75345261e-23 -1.52745946e-06 9.17547666e-22 -5.54158493e-37)
(-1.89167062e-06 0 4.57571425e-21 -1.89167062e-06 -2.13291683e-23 -1.106832e-35)
(-2.22621728e-06 0 4.44681836e-21 -2.22621728e-06 -2.38676604e-21 -1.14413116e-35)
(-2.53074394e-06 0 -8.30010845e-23 -2.53074394e-06 -1.22342607e-21 -5.9415751e-37)
(-2.80062944e-06 0 -4.44616112e-25 -2.80062944e-06 6.06975232e-40 -7.05853776e-44)
(-3.03429443e-06 0 -4.90085421e-25 -3.03429443e-06 0 -7.91563659e-44)
(-3.22955743e-06 0 5.05605912e-25 -3.22955743e-06 1.86347265e-26 -7.92630561e-44)
(-3.38540394e-06 0 -8.9925374e-23 -3.38540394e-06 -1.60694939e-21 -7.65159182e-37)
(-3.50156057e-06 0 -6.87570902e-21 -3.50156057e-06 2.14288724e-22 -1.3514344e-35)
(-3.57862952e-06 0 -6.54355409e-21 -3.57862952e-06 3.6285368e-21 -1.56440836e-35)
(-3.6177506e-06 0 8.79418184e-23 -3.6177506e-06 1.73679374e-21 -8.35929996e-37)
(-3.62074051e-06 0 8.81926923e-26 -3.62074051e-06 -5.67310384e-26 -3.03704771e-45)
(-3.5899594e-06 0 2.46077976e-25 -3.5899594e-06 1.45222289e-26 -1.69264492e-44)
(-3.52816802e-06 0 -5.8220922e-25 -3.52816802e-06 -1.42512396e-26 -9.61322339e-44)
(-3.43846126e-06 0 -1.06754902e-25 -3.43846126e-06 -1.10840827e-26 -3.35018055e-45)
(-3.32416428e-06 0 7.79382343e-23 -3.32416428e-06 2.1736178e-21 -1.42312122e-36)
(-3.18872252e-06 0 8.83965665e-21 -3.18872252e-06 3.89433051e-22 -2.45525245e-35)
(-3.03561023e-06 0 8.44614625e-21 -3.03561023e-06 -3.81767667e-21 -2.83014073e-35)
(-2.86825511e-06 0 -6.37807887e-23 -2.86825511e-06 -2.0973125e-21 -1.53500562e-36)
(-2.68997756e-06 0 1.27260896e-25 -2.68997756e-06 -6.14210537e-27 -6.03464558e-45)
(-2.50395155e-06 0 -3.12418743e-25 -2.50395155e-06 -1.8086525e-26 -3.91112173e-44)
(-2.31318108e-06 0 4.27361946e-23 -2.31318108e-06 2.08364477e-21 -1.87767484e-36)
(-2.12048153e-06 0 8.4567924e-21 -2.12048153e-06 8.88102754e-22 -3.40988889e-35)
(-1.92846719e-06 0 8.09822635e-21 -1.92846719e-06 -2.96552724e-21 -3.85672219e-35)
(-1.73954268e-06 0 -2.84834102e-23 -1.73954268e-06 -1.86099866e-21 -1.99140117e-36)
(-1.55589008e-06 0 -1.92521595e-27 -1.55589008e-06 -5.34268679e-27 -2.07281729e-47)
(-1.37944461e-06 0 -1.69735773e-27 -1.37944461e-06 2.75712803e-27 -7.59927448e-48)
(-1.21185714e-06 0 4.77844508e-26 -1.21185714e-06 -4.45931253e-27 -1.9005864e-45)
(-1.05444163e-06 0 1.97356683e-26 -1.05444163e-06 -4.20838712e-28 -3.69554556e-46)
(-9.08129212e-07 0 5.06417469e-27 -9.08129212e-07 3.15672942e-27 -3.9213369e-47)
(-7.73478505e-07 0 -1.63059699e-26 -7.73478505e-07 -3.28723288e-27 -3.57722357e-46)
(-6.50728823e-07 0 3.63400561e-26 -6.50728823e-07 2.35104972e-27 -2.03791052e-45)
(-5.39929025e-07 0 3.73438878e-26 -5.39929025e-07 1.59021572e-27 -2.58755258e-45)
(-4.41004676e-07 0 -5.15025571e-26 -4.41004676e-07 -1.68698725e-27 -6.0211591e-45)
(-3.53768226e-07 0 -4.09204519e-29 -3.53768226e-07 3.22456543e-27 -2.93963559e-47)
(-2.77860417e-07 0 -2.97349867e-26 -2.77860417e-07 -3.12584902e-27 -3.2172282e-45)
(-2.12758137e-07 0 2.61148771e-26 -2.12758137e-07 -2.2679184e-27 -3.22963094e-45)
(-1.57841571e-07 0 -3.82949031e-29 -1.57841571e-07 2.15547858e-27 -2.94444256e-47)
(-1.12434542e-07 0 -0 -1.12434542e-07 0 -0)
(-7.58538442e-08 0 -0 -7.58538442e-08 0 -0)
(-4.74101377e-08 0 -0 -4.74101377e-08 0 -0)
(-2.6382237e-08 0 9.8277959e-24 -2.6382237e-08 -3.20765476e-22 -3.90365215e-36)
(-1.2007531e-08 0 -1.02832421e-21 -1.2007531e-08 -4.29737666e-22 -1.03445508e-34)
(-3.50927292e-09 0 -1.16676887e-21 -3.50927292e-09 2.04052272e-24 -3.87930434e-34)
(-1.30007032e-10 0 -1.1734637e-22 -1.30007032e-10 4.54773527e-23 -1.21826951e-34)
(-1.15219242e-09 0 2.63455865e-24 -1.15219242e-09 -6.80802625e-23 -4.02872209e-36)
(-5.89494702e-09 0 -1.94321581e-26 -5.89494702e-09 1.823716e-27 -6.46205481e-44)
(-1.36930819e-08 0 -1.3824694e-26 -1.36930819e-08 2.87364247e-29 -1.39576314e-44)
(-2.38761787e-08 0 -1.58893619e-23 -2.38761787e-08 3.27431156e-22 -4.5008724e-36)
(-3.57446287e-08 0 1.85260062e-21 -3.57446287e-08 4.19637885e-22 -1.00944538e-34)
(-4.85454489e-08 0 2.33948705e-21 -4.85454489e-08 -4.40201908e-22 -1.16735503e-34)
(-6.14291983e-08 0 2.79129621e-23 -6.14291983e-08 -5.24278512e-22 -4.48723245e-36)
(-7.34481629e-08 0 -7.30778281e-26 -7.34481629e-08 -7.02711517e-27 -7.33816762e-44)
(-8.34886432e-08 0 -7.32572207e-26 -8.34886432e-08 -3.68185842e-28 -6.42812691e-44)
(-9.0386517e-08 0 1.57788714e-25 -9.0386517e-08 -7.41163801e-29 -2.75453515e-43)
(-9.28422069e-08 0 4.14462313e-25 -9.28422069e-08 2.41134526e-26 -1.85648827e-42)
(-9.00165351e-08 0 -5.77503097e-25 -9.00165351e-08 8.01169577e-28 -3.70499119e-42)
(-8.0811381e-08 0 1.62198907e-25 -8.0811381e-08 -4.63277813e-26 -3.52113137e-43)
(-6.59570549e-08 0 1.428487e-25 -6.59570549e-08 4.16254351e-26 -3.35649129e-43)
(-4.54695113e-08 0 -4.22089691e-25 -4.54695113e-08 2.95981965e-28 -3.91822541e-42)
(-2.45208011e-08 0 3.55380597e-25 -2.45208011e-08 -1.72673659e-26 -5.16269961e-42)
(-6.01392243e-09 0 -6.62473121e-26 -6.01392243e-09 4.26490481e-27 -7.32782276e-43)
(-1.51848912e-09 0 1.85577435e-28 -1.51848912e-09 -2.21353594e-27 -3.24940117e-45)
(-7.54494765e-09 0 -5.64093829e-26 -7.54494765e-09 1.25091102e-24 -2.07815941e-40)
(-5.03722991e-09 0 -1.03270092e-23 -5.03722991e-09 -2.26355642e-24 -2.21889428e-38)
(-1.61310373e-09 0 8.04983781e-24 -1.61310373e-09 2.9734938e-24 -4.56520884e-38)
(-2.47861186e-10 0 9.81729981e-24 -2.47861186e-10 3.44213792e-24 -4.36646377e-37)
(-6.92097869e-09 0 1.86695753e-23 -6.92097869e-09 1.28609257e-23 -7.42606609e-38)
(-2.64258831e-08 0 -3.31633862e-23 -2.64258831e-08 -1.81766177e-23 -5.41211662e-38)
(-7.01126387e-08 0 4.77313253e-23 -7.01126387e-08 2.95039486e-23 -4.49100541e-38)
(-1.55793992e-07 0 2.78386478e-23 -1.55793992e-07 3.3661611e-23 -1.22475478e-38)
(-3.05665945e-07 0 -8.0656517e-23 -3.05665945e-07 -6.49059627e-23 -3.50652662e-38)
(-5.37118383e-07 0 1.40985878e-22 -5.37118383e-07 9.43624686e-23 -5.35846364e-38)
(-8.50731482e-07 0 7.81467858e-25 -8.50731482e-07 -1.0471302e-23 -1.29604768e-40)
(-1.18978911e-06 0 1.21993068e-22 -1.18978911e-06 8.28129408e-23 -1.8272391e-38)
(-1.48566123e-06 0 -4.87668443e-23 -1.48566123e-06 -4.8379489e-23 -3.17621538e-39)
(-1.73764477e-06 0 -4.62503813e-23 -1.73764477e-06 -4.90213185e-23 -2.6139908e-39)
(-1.96503602e-06 0 -4.22619279e-23 -1.96503602e-06 -4.84905319e-23 -2.10550962e-39)
(-2.19755021e-06 0 1.13106575e-22 -2.19755021e-06 9.24596588e-23 -9.71167155e-39)
(-2.48858946e-06 0 3.06294509e-23 -2.48858946e-06 6.35933021e-23 -2.00204631e-39)
(-3.00155114e-06 0 1.51194097e-22 -3.00155114e-06 1.40960766e-22 -1.42358369e-38)
(-3.87681601e-06 0 8.26774518e-23 -3.87681601e-06 6.77904097e-23 -2.94857962e-39)
(-5.17258666e-06 0 -7.7400303e-23 -5.17258666e-06 -5.15174531e-23 -1.67128275e-39)
(-7.25746143e-06 0 2.6995609e-23 -7.25746143e-06 1.06896517e-23 -1.16160667e-40)
(-1.0508042e-05 0 1.2089844e-22 -1.0508042e-05 7.05812738e-23 -1.86506192e-39)
(-1.45679981e-05 0 -1.08462922e-23 -1.45679981e-05 -2.52963643e-24 -8.51463007e-42)
(-1.40512874e-05 0 -2.27070077e-23 -1.40512874e-05 4.28148311e-23 -1.67153222e-40)
(-7.77690575e-06 0 1.53613493e-26 -7.77690575e-06 1.10548894e-24 -1.57175851e-43)
(-2.51768526e-06 0 -1.32964158e-24 -2.51768526e-06 -3.25374234e-26 -7.02631679e-43)
(-8.40872597e-07 0 -1.8715788e-28 -8.40872597e-07 -3.68726244e-26 -1.61692207e-45)
(-3.68109181e-05 0 -1.67843548e-27 -3.68109181e-05 -6.52342203e-28 -8.80906039e-50)
(-3.71017176e-05 0 -1.74271649e-23 -3.71017176e-05 -1.52524047e-23 -1.44559865e-41)
(-2.07546916e-05 0 -8.9592679e-23 -2.07546916e-05 6.25480779e-21 -1.88538804e-36)
(-1.38528821e-06 0 2.84685661e-20 -1.38528821e-06 -1.87631294e-21 -5.87588776e-34)
(-1.76445268e-06 0 -3.24852711e-20 -1.76445268e-06 2.75913119e-20 -1.02953927e-33)
(-3.08889531e-06 0 1.03988839e-22 -3.08889531e-06 2.71706824e-21 -2.39350083e-36)
(-2.11496458e-06 0 8.59706957e-23 -2.11496458e-06 -6.15853349e-23 -5.28789659e-39)
(-1.82317844e-06 0 -1.40101889e-22 -1.82317844e-06 -2.98458558e-21 -4.89660221e-36)
(-1.6237808e-06 0 2.75156618e-20 -1.6237808e-06 -2.23824658e-20 -7.74788333e-34)
(-1.48595261e-06 0 2.96925829e-20 -1.48595261e-06 -1.83983635e-20 -8.2112259e-34)
(-1.38668353e-06 0 1.23167216e-22 -1.38668353e-06 3.56241307e-21 -9.16283835e-36)
(-1.41096001e-06 0 -2.32814272e-26 -1.41096001e-06 2.89469396e-26 -9.78022168e-46)
(-1.53557847e-06 0 1.15617314e-24 -1.53557847e-06 2.13830418e-23 -2.98630919e-40)
(-1.8059689e-06 0 4.05033117e-22 -1.8059689e-06 -4.0316377e-22 -1.80840795e-37)
(-2.27274105e-06 0 2.61721966e-22 -2.27274105e-06 -1.76772249e-22 -4.38883326e-38)
(-2.9701115e-06 0 1.96600063e-24 -2.9701115e-06 3.39222901e-23 -3.88735212e-40)
(-3.84690948e-06 0 3.67921358e-22 -3.84690948e-06 -1.90186875e-22 -4.45909045e-38)
(-4.84533129e-06 0 -8.54386236e-22 -4.84533129e-06 6.62668319e-22 -2.41284872e-37)
(-5.92538656e-06 0 4.98074747e-22 -5.92538656e-06 -4.3926078e-22 -7.44303316e-38)
(-6.97678449e-06 0 6.32143398e-22 -6.97678449e-06 -3.14201954e-22 -7.14266213e-38)
(-7.89778408e-06 0 -8.3761134e-22 -7.89778408e-06 3.2231487e-22 -1.01988055e-37)
(-8.72331036e-06 0 -3.9126817e-22 -8.72331036e-06 -3.08227476e-23 -1.76585282e-38)
(-9.51148917e-06 0 -1.47757894e-21 -9.51148917e-06 1.00329646e-21 -3.35367392e-37)
(-1.01897319e-05 0 1.16136832e-23 -1.01897319e-05 8.5606104e-23 -7.32431701e-40)
(-1.07768426e-05 0 -6.57969414e-22 -1.07768426e-05 3.91583747e-22 -5.44001248e-38)
(-1.14311607e-05 0 7.27812426e-22 -1.14311607e-05 -1.8640923e-20 -3.04443031e-35)
(-1.2543355e-05 0 1.35551235e-19 -1.2543355e-05 -3.11885205e-20 -1.54239923e-33)
(-1.68190853e-05 0 1.63657754e-19 -1.68190853e-05 2.43056881e-20 -1.6275931e-33)
(-2.62372546e-05 0 2.26489328e-21 -2.62372546e-05 2.78867781e-20 -2.98355201e-35)
(-3.6904738e-05 0 -1.68881208e-29 -3.6904738e-05 -2.14644527e-28 -1.25613903e-51)
(-4.64166743e-05 0 -3.24453001e-21 -4.64166743e-05 -4.40813183e-20 -4.20902537e-35)
(-5.51594899e-05 0 3.41119211e-19 -5.51594899e-05 -1.45349715e-20 -2.11339122e-33)
(-6.2825754e-05 0 3.84028298e-19 -6.2825754e-05 8.95029872e-20 -2.47491687e-33)
(-6.94601593e-05 0 3.71219067e-21 -6.94601593e-05 5.41605447e-20 -4.2429286e-35)
(-7.50262997e-05 0 -2.18373692e-25 -7.50262997e-05 2.52517536e-24 -8.5625943e-44)
(-7.95352135e-05 0 -7.05904144e-25 -7.95352135e-05 -4.63300457e-24 -2.76142239e-43)
(-8.29885738e-05 0 4.46203843e-25 -8.29885738e-05 2.96862726e-25 -3.46102282e-45)
(-8.54095567e-05 0 3.8711544e-21 -8.54095567e-05 6.92274956e-20 -5.62868157e-35)
(-8.68343264e-05 0 -5.04893219e-19 -8.68343264e-05 1.61831168e-20 -2.93868873e-33)
(-8.73131372e-05 0 -5.36604935e-19 -8.73131372e-05 -1.25150552e-19 -3.47722608e-33)
(-8.69049303e-05 0 -3.61425819e-21 -8.69049303e-05 -7.14887984e-20 -5.8957658e-35)
(-8.56859071e-05 0 -1.46931061e-24 -8.56859071e-05 9.44978997e-25 -3.56168134e-44)
(-8.3719384e-05 0 -6.37894786e-24 -8.3719384e-05 1.87213775e-24 -5.2790493e-43)
(-8.110109e-05 0 6.52972973e-24 -8.110109e-05 9.41064323e-26 -5.2584036e-43)
(-7.7923774e-05 0 1.94060647e-24 -7.7923774e-05 -3.83068295e-24 -2.36642611e-43)
(-7.42760804e-05 0 -3.12711298e-21 -7.42760804e-05 -8.80327331e-20 -1.04468907e-34)
(-7.02456204e-05 0 6.22297529e-19 -7.02456204e-05 -3.86975385e-20 -5.53417724e-33)
(-6.59174258e-05 0 6.31557472e-19 -6.59174258e-05 1.28999705e-19 -6.30342827e-33)
(-6.13727482e-05 0 2.5099049e-21 -6.13727482e-05 8.21736752e-20 -1.10127259e-34)
(-5.6688196e-05 0 -3.3090156e-24 -5.6688196e-05 1.44124488e-24 -2.29796889e-43)
(-5.19352428e-05 0 3.21050501e-24 -5.19352428e-05 -7.97792867e-25 -2.10720414e-43)
(-4.71799634e-05 0 -1.65619898e-21 -4.71799634e-05 -8.12532089e-20 -1.39992202e-34)
(-4.24828507e-05 0 5.57876523e-19 -4.24828507e-05 -4.90672871e-20 -7.38259812e-33)
(-3.78987103e-05 0 5.45262132e-19 -3.78987103e-05 9.96921872e-20 -8.10711822e-33)
(-3.34765766e-05 0 1.06796446e-21 -3.34765766e-05 7.01715503e-20 -1.47123378e-34)
(-2.92594987e-05 0 -4.81956957e-26 -2.92594987e-05 -1.94979769e-25 -1.37869537e-45)
(-2.52841163e-05 0 -4.33337902e-26 -2.52841163e-05 -2.00649029e-25 -1.66657397e-45)
(-2.15800136e-05 0 2.44372299e-24 -2.15800136e-05 1.16910479e-25 -2.77360812e-43)
(-1.81689569e-05 0 -9.16372175e-25 -1.81689569e-05 1.11605909e-25 -4.69038396e-44)
(-1.50645149e-05 0 2.91764198e-25 -1.50645149e-05 1.4929372e-26 -5.66558127e-45)
(-1.22727035e-05 0 -1.34241258e-26 -1.22727035e-05 -1.16759049e-26 -2.57917019e-47)
(-9.79348152e-06 0 -4.60586681e-25 -9.79348152e-06 -1.68089217e-25 -2.45463347e-44)
(-7.62304421e-06 0 1.64375749e-24 -7.62304421e-06 1.82701972e-25 -3.58822356e-43)
(-5.75483975e-06 0 -2.29349146e-26 -5.75483975e-06 8.68789247e-26 -1.4029857e-45)
(-4.17956091e-06 0 -8.99205209e-25 -4.17956091e-06 -9.35956317e-26 -1.95554071e-43)
(-2.88441273e-06 0 5.48875244e-25 -2.88441273e-06 0 -1.04445536e-43)
(-1.85367704e-06 0 -1.70796765e-24 -1.85367704e-06 -4.17959127e-39 -1.57371183e-42)
(-1.06988038e-06 0 9.68692999e-25 -1.06988038e-06 0 -8.77075742e-43)
(-5.14565021e-07 0 -6.93674792e-25 -5.14565021e-07 2.61610092e-39 -9.35129084e-43)
(-1.68871092e-07 0 -4.9566508e-27 -1.68871092e-07 0 -1.45486044e-46)
(-1.34159832e-08 0 -1.16735901e-25 -1.34159832e-08 -2.45714823e-26 -1.06075181e-42)
(-2.80047504e-08 0 9.0155021e-23 -2.80047504e-08 -2.97160575e-21 -3.15609621e-34)
(-1.91942796e-07 0 5.48405777e-20 -1.91942796e-07 -1.5669034e-20 -1.69477973e-32)
(-4.84762211e-07 0 1.74184273e-19 -4.84762211e-07 -1.32001112e-22 -6.25877548e-32)
(-8.86826918e-07 0 1.17457536e-19 -8.86826918e-07 3.40356613e-20 -1.68631541e-32)
(-1.37940285e-06 0 -8.22337224e-22 -1.37940285e-06 2.15146743e-20 -3.36056612e-34)
(-1.94423098e-06 0 4.94194994e-24 -1.94423098e-06 9.24364006e-25 -1.30011908e-41)
(-2.56277424e-06 0 9.04514158e-25 -2.56277424e-06 3.78175876e-25 -3.75047806e-43)
(-3.21576717e-06 0 1.6304045e-21 -3.21576717e-06 -3.38370249e-20 -3.56867401e-34)
(-3.88242058e-06 0 2.63853677e-19 -3.88242058e-06 -3.89972115e-20 -1.8323503e-32)
(-4.53964238e-06 0 2.80963396e-19 -4.53964238e-06 3.87089513e-20 -1.77191959e-32)
(-5.16051013e-06 0 -2.33327677e-21 -5.16051013e-06 4.36152617e-20 -3.69679582e-34)
(-5.7141332e-06 0 -6.97741399e-24 -5.7141332e-06 5.75169321e-25 -8.57787596e-42)
(-6.16315499e-06 0 -8.15768084e-24 -6.16315499e-06 -1.0779852e-24 -1.09862252e-41)
(-6.46690609e-06 0 1.59881469e-23 -6.46690609e-06 -2.50456693e-24 -4.0497526e-41)
(-6.57736355e-06 0 -7.85960083e-24 -6.57736355e-06 2.33694657e-24 -1.02221268e-41)
(-6.45285071e-06 0 2.73992344e-23 -6.45285071e-06 1.30827147e-24 -1.16604219e-40)
(-6.04583772e-06 0 -1.91561224e-23 -6.04583772e-06 -1.17468267e-24 -6.09240478e-41)
(-5.35697702e-06 0 -1.85016166e-23 -5.35697702e-06 1.14360578e-24 -6.4143947e-41)
(-4.35330446e-06 0 2.32578361e-23 -4.35330446e-06 -2.02462714e-24 -1.2519824e-40)
(-3.16669064e-06 0 -5.19597273e-24 -3.16669064e-06 -5.96993797e-26 -8.526787e-42)
(-1.80927101e-06 0 -3.4479809e-25 -1.80927101e-06 1.35819016e-24 -1.08528033e-42)
(-5.96898767e-07 0 -1.2297823e-22 -5.96898767e-07 -4.85332408e-24 -2.5376497e-38)
(-2.93997619e-07 0 -6.91557485e-22 -2.93997619e-07 -8.83720413e-23 -1.65328337e-36)
(-3.69132972e-07 0 -5.13838872e-22 -3.69132972e-07 -3.36096444e-23 -7.18331915e-37)
(-5.76467128e-07 0 8.65247643e-22 -5.76467128e-07 7.63395409e-23 -1.30880179e-36)
(-1.0201268e-06 0 -1.34947052e-21 -1.0201268e-06 -6.49299647e-22 -2.19841368e-36)
(-1.72707948e-06 0 -1.734656e-21 -1.72707948e-06 -5.24560067e-22 -1.90158863e-36)
(-2.81261395e-06 0 1.94493128e-21 -2.81261395e-06 1.0702557e-21 -1.75217966e-36)
(-4.61740943e-06 0 -2.19135392e-21 -4.61740943e-06 -1.72460249e-21 -1.68412307e-36)
(-7.56052594e-06 0 2.7021827e-21 -7.56052594e-06 1.78516509e-21 -1.3872852e-36)
(-1.20854413e-05 0 2.83145669e-21 -1.20854413e-05 2.18323901e-21 -1.05777515e-36)
(-1.84585222e-05 0 -4.34187953e-21 -1.84585222e-05 -3.52498019e-21 -1.69446952e-36)
(-2.65961946e-05 0 5.05837307e-21 -2.65961946e-05 4.44980956e-21 -1.7065578e-36)
(-3.5280806e-05 0 -3.81149665e-21 -3.5280806e-05 -2.37195524e-21 -5.71236337e-37)
(-4.30143876e-05 0 -4.21744088e-21 -4.30143876e-05 -2.34441941e-21 -5.41286561e-37)
(-4.95887374e-05 0 -4.08709519e-21 -4.95887374e-05 -2.84035119e-21 -4.99547745e-37)
(-5.54202038e-05 0 -3.8507673e-21 -5.54202038e-05 -3.10233654e-21 -4.4122719e-37)
(-6.11951877e-05 0 -7.39776813e-21 -6.11951877e-05 -7.43781175e-21 -1.79831162e-36)
(-6.81281715e-05 0 3.33910179e-21 -6.81281715e-05 1.47781517e-21 -1.95712554e-37)
(-7.9760968e-05 0 2.81132254e-22 -7.9760968e-05 -1.65352362e-21 -3.52700798e-38)
(-9.94852463e-05 0 -2.40843309e-21 -9.94852463e-05 -1.34960251e-21 -7.66141429e-38)
(-0.000128975792 0 2.20913004e-21 -0.000128975792 1.60862922e-21 -5.79019008e-38)
(-0.000175024033 0 9.02628655e-22 -0.000175024033 -2.64055361e-21 -4.44925288e-38)
(-0.000245392147 0 -1.31581301e-21 -0.000245392147 -4.87768385e-21 -1.040097e-37)
(-0.000337657038 0 -1.54882303e-21 -0.000337657038 4.97941752e-21 -8.05357169e-38)
(-0.000360856342 0 5.56330741e-22 -0.000360856342 -1.27290884e-21 -5.34783679e-39)
(-0.000256863988 0 -6.86338757e-25 -0.000256863988 -4.7916024e-23 -8.94020386e-42)
(-0.000117585256 0 1.20671761e-22 -0.000117585256 2.9576619e-24 -1.2391368e-40)
(-5.06078644e-05 0 -1.57515346e-26 -5.06078644e-05 0 -4.90261434e-48)
(-0.000456255996 0 -5.34169767e-26 -0.000456255996 5.55486534e-24 -6.76361136e-44)
(-0.000402751348 0 2.17709297e-24 -0.000402751348 2.82024518e-22 -1.97497957e-40)
(-0.00024662424 0 5.33814872e-22 -0.00024662424 -6.49577857e-20 -1.71102357e-35)
(-4.28029571e-05 0 4.92843126e-19 -4.28029571e-05 -2.3878899e-19 -7.00686469e-33)
(-4.13102546e-06 0 -1.97459809e-19 -4.13102546e-06 3.83623994e-20 -9.79467451e-33)
(-1.98859995e-05 0 5.45264394e-22 -1.98859995e-05 -2.20515557e-20 -2.44678887e-35)
(-1.56803677e-05 0 -4.07654489e-25 -1.56803677e-05 7.15996972e-23 -3.26949146e-40)
(-1.37147929e-05 0 1.04200605e-21 -1.37147929e-05 -7.43564441e-22 -1.19481548e-37)
(-1.24345364e-05 0 -3.03943799e-19 -1.24345364e-05 2.55155792e-19 -1.26652338e-32)
(-1.16041081e-05 0 -3.29445844e-19 -1.16041081e-05 2.8015527e-19 -1.61168388e-32)
(-1.11267486e-05 0 1.36902941e-21 -1.11267486e-05 -1.01903142e-21 -2.6177158e-37)
(-1.15600012e-05 0 -1.62181619e-24 -1.15600012e-05 1.18766427e-24 -3.49553091e-43)
(-1.28182277e-05 0 -1.02431689e-23 -1.28182277e-05 -1.93104436e-22 -2.91727114e-39)
(-1.5253744e-05 0 1.5512884e-22 -1.5253744e-05 1.29024018e-22 -2.66899419e-39)
(-1.92321851e-05 0 -8.26520698e-21 -1.92321851e-05 6.81299353e-21 -5.96554821e-36)
(-2.48898891e-05 0 6.35432163e-24 -2.48898891e-05 -5.84202448e-24 -2.99345059e-42)
(-3.17796672e-05 0 -8.54525744e-21 -3.17796672e-05 6.47095326e-21 -3.61535129e-36)
(-3.94799216e-05 0 -3.38936551e-23 -3.94799216e-05 6.43756201e-24 -3.01475284e-41)
(-4.76761349e-05 0 6.40698466e-21 -4.76761349e-05 -4.55416967e-21 -1.29603446e-36)
(-5.57124553e-05 0 -7.76787297e-21 -5.57124553e-05 5.20121217e-21 -1.56863412e-36)
(-6.32253724e-05 0 9.53874927e-21 -6.32253724e-05 -4.69942359e-21 -1.78840101e-36)
(-7.06779135e-05 0 -1.13276902e-21 -7.06779135e-05 4.04472157e-22 -2.04698089e-38)
(-7.84381471e-05 0 -1.48698429e-20 -7.84381471e-05 4.30345155e-21 -3.05504313e-36)
(-8.62368763e-05 0 -1.60407544e-20 -8.62368763e-05 4.45570804e-21 -3.21392828e-36)
(-9.43862254e-05 0 -1.85835001e-20 -9.43862254e-05 3.86019834e-21 -3.8167392e-36)
(-0.000104272636 0 1.33777167e-21 -0.000104272636 2.65158025e-22 -1.78372955e-38)
(-0.000122304998 0 -1.7734656e-18 -0.000122304998 2.28807363e-19 -2.61439278e-32)
(-0.000160614519 0 -2.00477415e-18 -0.000160614519 7.421843e-20 -2.50576833e-32)
(-0.000223255068 0 5.26134001e-25 -0.000223255068 6.45646572e-24 -1.87958853e-43)
(-0.000288387079 0 -6.50564773e-23 -0.000288387079 1.76833981e-27 -1.46759184e-41)
(-0.000342614471 0 6.98252893e-23 -0.000342614471 1.75589469e-37 -1.42304878e-41)
(-0.000388097253 0 -3.70908331e-18 -0.000388097253 0 -3.54480711e-32)
(-0.000424768453 0 -3.89958512e-18 -0.000424768453 0 -3.5800126e-32)
(-0.000453423025 0 -2.76350534e-22 -0.000453423025 0 -1.68429068e-40)
(-0.000474520099 0 1.84599248e-22 -0.000474520099 0 -7.1813359e-41)
(-0.000488592663 0 1.60158154e-23 -0.000488592663 0 -5.24990164e-43)
(-0.000496121546 0 -1.69252581e-23 -0.000496121546 -4.05866975e-37 -5.7740762e-43)
(-0.000497633707 0 -3.28268417e-25 -0.000497633707 -5.87905055e-24 -6.96717186e-44)
(-0.000493670398 0 4.88006564e-18 -0.000493670398 1.63220736e-23 -4.82407711e-32)
(-0.000484787693 0 4.95396699e-18 -0.000484787693 -1.07836791e-23 -5.06237871e-32)
(-0.000471540955 0 2.09967075e-24 -0.000471540955 1.06495575e-23 -2.49865236e-43)
(-0.000454525174 0 -1.38266552e-23 -0.000454525174 -4.05713705e-24 -4.56821241e-43)
(-0.000434081032 0 -5.21464167e-23 -0.000434081032 -5.88618616e-24 -6.34419788e-42)
(-0.000411094098 0 1.06155333e-23 -0.000411094098 -6.54511966e-24 -3.78327343e-43)
(-0.000386129044 0 1.67963978e-22 -0.000386129044 8.62326276e-24 -7.32559728e-41)
(-0.000359704073 0 -1.76162785e-22 -0.000359704073 1.2274765e-23 -8.66934767e-41)
(-0.000332302996 0 -5.49624697e-18 -0.000332302996 -7.82073305e-24 -9.09071875e-32)
(-0.000304372571 0 -5.40353605e-18 -0.000304372571 -5.84256648e-24 -9.59291495e-32)
(-0.000276321148 0 -6.07472725e-23 -0.000276321148 0 -1.33548632e-41)
(-0.000248518502 0 -0 -0.000248518502 0 -0)
(-0.000221296544 0 6.65112148e-24 -0.000221296544 0 -1.99901075e-43)
(-0.000194950297 0 -4.9642244e-18 -0.000194950297 -2.91119884e-24 -1.26409266e-31)
(-0.000169738895 0 -9.35225188e-18 -0.000169738895 4.91198072e-24 -5.15289174e-31)
(-0.000145886522 0 -4.33824228e-18 -0.000145886522 1.83014133e-24 -1.2900675e-31)
(-0.000123583022 0 -7.32979772e-24 -0.000123583022 -3.13134192e-24 -5.14077385e-43)
(-0.00010298384 0 1.80062028e-23 -0.00010298384 -1.04803028e-24 -3.15895881e-42)
(-8.42092129e-05 0 2.18514288e-25 -8.42092129e-05 -1.05634875e-24 -1.38182169e-44)
(-6.73429376e-05 0 -9.42190189e-24 -6.73429376e-05 5.13606943e-25 -1.32212865e-42)
(-5.24316045e-05 0 2.25212376e-24 -5.24316045e-05 8.50104794e-25 -1.10519974e-43)
(-3.94862553e-05 0 -1.95771601e-24 -3.94862553e-05 0 -9.70629384e-44)
(-2.84874839e-05 0 1.73242238e-24 -2.84874839e-05 0 -1.05354594e-43)
(-1.93929004e-05 0 -1.43141042e-24 -1.93929004e-05 -5.95258622e-25 -1.23925177e-43)
(-1.2144794e-05 0 -4.55587187e-24 -1.2144794e-05 1.20019233e-25 -1.71022852e-42)
(-6.67239105e-06 0 3.50234408e-24 -6.67239105e-06 6.96408802e-25 -1.91106894e-42)
(-2.89139713e-06 0 -7.98174612e-26 -2.89139713e-06 -5.08446635e-26 -3.09746691e-45)
(-7.03471925e-07 0 -2.27382646e-27 -7.03471925e-07 1.29893574e-25 -2.39917335e-44)
(-2.18457493e-13 0 1.14436578e-27 -2.18457493e-13 1.559949e-28 -6.10602749e-42)
(-6.65858964e-07 0 -4.40789895e-19 -6.65858964e-07 -4.04810996e-26 -2.91797125e-31)
(-2.58189561e-06 0 -8.83320396e-19 -2.58189561e-06 -4.45035531e-25 -3.0220235e-31)
(-5.62526289e-06 0 5.89110896e-24 -5.62526289e-06 -5.30397774e-26 -6.17001883e-42)
(-9.66810265e-06 0 -1.55861259e-23 -9.66810265e-06 1.98717754e-24 -2.55351236e-41)
(-1.45785928e-05 0 4.25930341e-23 -1.45785928e-05 1.16430245e-24 -1.2453343e-40)
(-2.02251608e-05 0 -2.36404365e-18 -2.02251608e-05 -2.85549929e-24 -2.76324249e-31)
(-2.64801111e-05 0 -5.49906711e-18 -2.64801111e-05 3.39890408e-24 -1.14197931e-30)
(-3.32213179e-05 0 -3.1241138e-18 -3.32213179e-05 2.53797041e-25 -2.93789881e-31)
(-4.03299926e-05 0 -1.16800257e-22 -4.03299926e-05 -8.33529157e-24 -3.39989575e-40)
(-4.76864907e-05 0 3.84308487e-23 -4.76864907e-05 -5.04371844e-24 -3.15051329e-41)
(-5.51648322e-05 0 5.03008154e-23 -5.51648322e-05 9.41369839e-24 -4.74720875e-41)
(-6.26300255e-05 0 5.13061547e-23 -6.26300255e-05 4.71430261e-25 -4.20332538e-41)
(-6.99319483e-05 0 -4.66150343e-18 -6.99319483e-05 -6.41023693e-24 -3.10725137e-31)
(-7.68988783e-05 0 -4.97277998e-18 -7.68988783e-05 1.19750858e-23 -3.2157219e-31)
(-8.33260372e-05 0 5.91423984e-23 -8.33260372e-05 1.37007244e-23 -4.42302702e-41)
(-8.89709801e-05 0 -4.1432464e-24 -8.89709801e-05 -4.37421374e-24 -4.08000862e-43)
(-9.35366386e-05 0 1.35851047e-22 -9.35366386e-05 -2.71182314e-23 -2.05169927e-40)
(-9.66826142e-05 0 -1.48621551e-23 -9.66826142e-05 -2.28322188e-24 -2.33854616e-42)
(-9.79889708e-05 0 -3.77300144e-22 -9.79889708e-05 -3.75801905e-25 -1.45277105e-39)
(-9.69090991e-05 0 3.8230806e-22 -9.69090991e-05 1.21189886e-23 -1.5097274e-39)
(-9.3053722e-05 0 -1.25607926e-22 -9.3053722e-05 3.03048039e-23 -1.7942036e-40)
(-8.6179889e-05 0 -2.73614692e-24 -8.6179889e-05 -2.54183396e-23 -7.58388642e-42)
(-7.58179497e-05 0 1.31614277e-22 -7.58179497e-05 -1.44660655e-23 -2.31232642e-40)
(-6.23951462e-05 0 -2.31104736e-22 -6.23951462e-05 1.16600439e-23 -8.581654e-40)
(-4.52976063e-05 0 1.61745886e-22 -4.52976063e-05 3.33412426e-22 -3.03162989e-39)
(-2.90860902e-05 0 4.40019719e-21 -2.90860902e-05 2.34854049e-21 -8.55301539e-37)
(-2.39286994e-05 0 8.02074347e-21 -2.39286994e-05 8.09587432e-22 -2.71589177e-36)
(-2.49627647e-05 0 -1.67388699e-20 -2.49627647e-05 -7.58400221e-21 -1.35284236e-35)
(-2.85153692e-05 0 1.92560594e-20 -2.85153692e-05 5.85026281e-21 -1.42036175e-35)
(-3.41143309e-05 0 -1.06004166e-19 -3.41143309e-05 -3.91257358e-20 -3.74262253e-34)
(-4.17387154e-05 0 -6.98724785e-24 -4.17387154e-05 -2.79476591e-24 -1.35683019e-42)
(-5.21923864e-05 0 6.37708948e-24 -5.21923864e-05 1.18006123e-23 -3.44727906e-42)
(-6.79095335e-05 0 -3.40695943e-20 -6.79095335e-05 -2.09398864e-20 -2.35492134e-35)
(-9.11622636e-05 0 -4.29636878e-21 -9.11622636e-05 -3.00683038e-21 -3.01657864e-37)
(-0.000123629743 0 3.55978717e-20 -0.000123629743 3.09008748e-20 -1.79736079e-35)
(-0.000165654548 0 -4.5296008e-20 -0.000165654548 -3.56514717e-20 -2.00583432e-35)
(-0.000216186343 0 4.56605393e-21 -0.000216186343 -7.49529244e-21 -3.56304919e-37)
(-0.00026963896 0 -3.29925049e-22 -0.00026963896 4.98346183e-21 -9.25079313e-38)
(-0.000318667635 0 4.52962363e-20 -0.000318667635 3.49441974e-20 -1.02704059e-35)
(-0.000360756039 0 8.29474901e-20 -0.000360756039 6.46858364e-20 -3.06704319e-35)
(-0.000397641911 0 4.0212201e-20 -0.000397641911 3.56338088e-20 -7.25977155e-36)
(-0.000432887803 0 2.84648504e-20 -0.000432887803 3.16137331e-20 -4.18047313e-36)
(-0.000472961783 0 -3.27034286e-20 -0.000472961783 -2.79800122e-20 -3.91658562e-36)
(-0.000535567878 0 -6.48787809e-20 -0.000535567878 -4.37498354e-20 -1.14332927e-35)
(-0.000640158862 0 6.20736148e-23 -0.000640158862 -2.57411197e-21 -1.03566567e-38)
(-0.000797996023 0 -3.3878008e-24 -0.000797996023 1.29744894e-21 -2.10951582e-39)
(-0.00103473447 0 -3.15181335e-20 -0.00103473447 4.31645515e-22 -9.60226109e-37)
(-0.00138154397 0 -2.75324939e-20 -0.00138154397 1.06682798e-20 -6.31069611e-37)
(-0.00184050661 0 3.58152109e-20 -0.00184050661 -7.24838858e-20 -3.55154554e-36)
(-0.0021042746 0 -5.57337976e-21 -0.0021042746 2.40363209e-20 -2.89319315e-37)