/*--------------------------------*- C++ -*----------------------------------*\
| =========                 |                                                 |
| \\      /  F ield         | OpenFOAM: The Open Source CFD Toolbox           |
|  \\    /   O peration     | Version:  2506                                  |
|   \\  /    A nd           | Website:  www.openfoam.com                      |
|    \\/     M anipulation  |                                                 |
\*---------------------------------------------------------------------------*/
FoamFile
{
    version     2.0;
    format      ascii;
    arch        "LSB;label=32;scalar=64";
    class       volSymmTensorField;
    location    "2644";
    object      Tij5;
}
// * * * * * * * * * * * * * * * * * * * * * * * * * * * * * * * * * * * * * //

dimensions      [0 0 0 0 0 0 0];

internalField   nonuniform List<symmTensor> 
15600
(
(2.069724e-12 -5.44228955e-15 -1.39810532e-29 -2.069724e-12 1.41944415e-32 3.70766398e-51)
(-4.57498885e-12 2.0874259e-13 9.01582182e-31 4.57498885e-12 2.24764437e-30 9.44568536e-49)
(2.51916479e-12 -5.43076632e-13 -1.70252914e-28 -2.51916479e-12 1.79677039e-29 1.38884977e-47)
(-1.33774017e-14 -9.86753517e-16 1.29518487e-27 1.33774017e-14 6.95034149e-28 6.26525571e-40)
(-9.87375909e-13 1.23919776e-12 1.03196149e-26 9.87375909e-13 -7.47667499e-27 1.64557087e-41)
(-5.80162066e-13 1.17953331e-12 -1.82679539e-28 5.80162066e-13 1.12785333e-28 -1.93963274e-44)
(-1.26848909e-13 3.95684143e-13 5.2968425e-29 1.26848909e-13 -3.4807131e-29 6.70492833e-45)
(-8.58849928e-14 3.82737847e-13 -1.88899382e-26 8.58849928e-14 1.50391316e-26 -3.04848375e-41)
(-4.97650097e-14 2.80664941e-13 -1.71926008e-26 4.97650097e-14 1.49496253e-26 4.06129658e-40)
(-3.93665356e-14 2.35731981e-13 1.77121892e-26 3.93665356e-14 -1.43291085e-26 -4.9084861e-40)
(-2.8398044e-14 1.54023678e-13 1.82407711e-26 2.8398044e-14 -1.5116468e-26 -4.57704776e-41)
(-2.47417457e-14 1.19531478e-13 2.55028446e-32 2.47417457e-14 -2.02552752e-32 -1.72000274e-51)
(-2.13186046e-14 9.44696029e-14 -1.15800312e-28 2.13186046e-14 9.23309409e-29 -1.49060333e-45)
(-1.9477086e-14 8.11951713e-14 -1.68111622e-28 1.9477086e-14 1.30433129e-28 -1.21751494e-43)
(-2.20179887e-14 8.80090555e-14 1.77934621e-28 2.20179887e-14 -1.36159589e-28 -1.00736214e-43)
(-3.31025961e-14 1.28646492e-13 -3.66939891e-29 3.31025961e-14 2.84053275e-29 -7.16619862e-47)
(-6.90099447e-14 2.58955446e-13 9.73915638e-28 6.90099447e-14 -7.42962265e-28 -1.47631952e-43)
(-1.23981417e-13 4.2696835e-13 -1.33840824e-29 1.23981417e-13 1.1416791e-29 3.15257528e-45)
(-2.16408015e-13 6.49453829e-13 -3.01858658e-27 2.16408015e-13 2.14947667e-27 -8.46321513e-43)
(-3.31937324e-13 8.31456423e-13 2.68397561e-27 3.31937324e-13 -1.84746005e-27 6.38609316e-43)
(-4.38958352e-13 8.85386788e-13 -1.6352243e-28 4.38958352e-13 6.71333109e-29 -1.46972578e-44)
(-4.07052333e-13 6.40664701e-13 -2.46300317e-27 4.07052333e-13 1.39427894e-27 2.80640753e-43)
(-2.37841451e-13 2.87812974e-13 3.20497979e-27 2.37841451e-13 -1.31548397e-27 -1.27318334e-42)
(3.4294529e-14 -3.14452875e-14 2.05467468e-27 -3.4294529e-14 -7.97558262e-28 -6.22048099e-45)
(4.24377547e-13 -2.84956921e-13 9.60794487e-29 -4.24377547e-13 2.15551997e-28 -2.57133386e-44)
(1.29716145e-12 -5.91821721e-13 -3.88522496e-25 -1.29716145e-12 8.44535766e-26 -1.92248693e-40)
(3.11702095e-13 -8.26399571e-14 -4.23302296e-25 -3.11702095e-13 6.38355527e-26 4.3793453e-39)
(3.32094006e-12 -3.29399252e-13 4.97051859e-25 -3.32094006e-12 -1.98269507e-26 -4.12405815e-39)
(7.07977475e-12 -2.02076512e-13 9.54267221e-25 -7.07977475e-12 -1.49560748e-26 9.4495684e-41)
(8.01313262e-12 -1.61446592e-13 -4.68363582e-33 -8.01313262e-12 5.09932717e-35 1.22623446e-57)
(1.22071706e-11 -1.82128512e-13 -2.26980179e-24 -1.22071706e-11 1.87735696e-26 1.82548394e-40)
(1.45543775e-11 -1.70135631e-13 -3.00977191e-24 -1.45543775e-11 1.1741803e-26 1.44756227e-38)
(1.75346838e-11 -1.64504146e-13 3.21698131e-24 -1.75346838e-11 -2.70269675e-26 -1.29601576e-38)
(1.9930672e-11 -1.53125716e-13 3.8940948e-24 -1.9930672e-11 -1.73717461e-26 2.43275432e-40)
(2.21628312e-11 -1.4087422e-13 7.36840018e-30 -2.21628312e-11 -4.18207989e-32 1.78097359e-48)
(2.39039638e-11 -1.25968463e-13 7.39441009e-30 -2.39039638e-11 -3.69927651e-32 1.76503447e-48)
(2.51957422e-11 -1.09440946e-13 -7.38828337e-29 -2.51957422e-11 2.13273346e-31 2.25146056e-47)
(2.59483714e-11 -9.16682336e-14 5.91454617e-24 -2.59483714e-11 -1.35292876e-26 3.07198877e-40)
(2.62035228e-11 -7.3622593e-14 6.46959516e-24 -2.62035228e-11 1.86853057e-27 2.53063761e-38)
(2.5960804e-11 -5.58862619e-14 -6.18882741e-24 -2.5960804e-11 2.38194553e-26 -2.27412647e-38)
(2.52601164e-11 -3.90580543e-14 -6.6078053e-24 -2.52601164e-11 8.14295372e-27 3.19239959e-40)
(2.41308576e-11 -2.36160867e-14 1.65851497e-28 -2.41308576e-11 -3.18803119e-31 -8.0979029e-48)
(2.26550226e-11 -1.00173552e-14 -7.37677417e-30 -2.26550226e-11 1.88946211e-31 9.03700501e-49)
(2.09113227e-11 1.45434858e-15 8.42984942e-30 -2.09113227e-11 -1.88649768e-31 2.21152836e-48)
(1.8975106e-11 1.0657104e-14 8.78487993e-29 -1.8975106e-11 1.57585483e-31 5.43785447e-48)
(1.69211198e-11 1.75750218e-14 -7.92641906e-24 -1.69211198e-11 -1.34705228e-27 3.80671721e-40)
(1.48196823e-11 2.23006789e-14 -7.90486982e-24 -1.48196823e-11 -1.14508151e-26 4.37162811e-38)
(1.27337682e-11 2.50107126e-14 7.24051339e-24 -1.27337682e-11 -2.02901358e-27 -4.03747286e-38)
(1.07175813e-11 2.59421786e-14 7.10415034e-24 -1.07175813e-11 6.63553597e-27 3.31375313e-40)
(8.81494538e-12 2.53681828e-14 3.6865998e-29 -8.81494538e-12 1.08919853e-31 -3.50738799e-48)
(7.06020677e-12 2.35795403e-14 4.19352815e-29 -7.06020677e-12 -2.69870528e-33 1.03549301e-47)
(5.47797921e-12 2.08695475e-14 -6.33819126e-24 -5.47797921e-12 -1.08372941e-26 2.58163143e-40)
(4.08356182e-12 1.75220624e-14 -5.94369379e-24 -4.08356182e-12 -1.35739224e-26 4.73557285e-38)
(2.88402773e-12 1.38033091e-14 5.32903804e-24 -2.88402773e-12 1.08613078e-26 -4.47669918e-38)
(1.87891028e-12 9.95427127e-15 4.90909443e-24 -1.87891028e-12 1.24995175e-26 1.8965788e-40)
(1.06164162e-12 6.18757627e-15 1.33161895e-29 -1.06164162e-12 3.77894655e-32 3.3224546e-50)
(4.19893794e-13 2.67879369e-15 -6.48920261e-30 -4.19893794e-13 -2.05818624e-32 -1.58861381e-50)
(-6.24664017e-14 -4.344944e-16 8.96725327e-30 6.24664017e-14 3.03389346e-32 -7.06851833e-49)
(-4.05285015e-13 -3.06525043e-15 2.58025496e-30 4.05285015e-13 1.56713507e-32 -9.64333429e-50)
(-6.30666422e-13 -5.18048229e-15 -6.40193729e-30 6.30666422e-13 -2.78734036e-32 7.16066685e-50)
(-7.59518695e-13 -6.77938982e-15 5.64251395e-30 7.59518695e-13 2.50223471e-32 2.38441336e-49)
(-8.13575451e-13 -7.90694914e-15 -2.98743862e-30 8.13575451e-13 -1.17426399e-32 3.36282688e-49)
(-8.08357448e-13 -8.57871172e-15 -2.40809261e-30 8.08357448e-13 -1.22233385e-32 3.37044186e-49)
(-7.60995906e-13 -8.85136237e-15 1.77634297e-30 7.60995906e-13 7.68994616e-33 4.25333585e-49)
(-6.83264542e-13 -8.75144258e-15 -3.83664278e-30 6.83264542e-13 -2.61281058e-32 -4.68036063e-52)
(-5.8933263e-13 -8.37118524e-15 2.74546653e-30 5.8933263e-13 1.83779326e-32 5.94715459e-49)
(-4.87794355e-13 -7.76022532e-15 2.54377396e-30 4.87794355e-13 2.41569277e-32 -6.16679711e-49)
(-3.86832701e-13 -6.986009e-15 -1.71336826e-30 3.86832701e-13 -1.67928228e-32 -4.44899199e-52)
(-2.91681621e-13 -6.08804133e-15 0 2.91681621e-13 0 0)
(-2.06650869e-13 -5.10720342e-15 0 2.06650869e-13 0 0)
(-1.34773478e-13 -4.08302703e-15 0 1.34773478e-13 0 0)
(-7.78442607e-14 -3.05303355e-15 1.04355665e-25 7.78442607e-14 2.28322939e-27 -3.37517468e-41)
(-3.66532156e-14 -2.05208024e-15 8.70960331e-26 3.66532156e-14 2.53647141e-27 1.5333807e-38)
(-1.10532736e-14 -1.10021596e-15 -9.41821452e-27 1.10532736e-14 -8.87444959e-28 -5.04029058e-39)
(-4.2159058e-16 -2.0913859e-16 -2.07921035e-27 4.2159058e-16 -7.25467312e-28 -3.08608742e-39)
(-3.83267575e-15 6.12074772e-16 -4.64208677e-27 3.83267575e-15 4.22579414e-28 5.79714706e-41)
(-2.00842073e-14 1.3536506e-15 1.31204473e-31 2.00842073e-14 -2.07313441e-33 1.08537e-48)
(-4.7640844e-14 2.00128554e-15 -9.17578416e-32 4.7640844e-14 3.83719253e-33 -1.36726341e-49)
(-8.46650647e-14 2.5404611e-15 1.01099025e-25 8.46650647e-14 -1.80528344e-27 1.68236348e-40)
(-1.28864837e-13 2.94956262e-15 1.64267745e-25 1.28864837e-13 -2.42458303e-27 -1.66458567e-38)
(-1.77663386e-13 3.20578123e-15 -1.90034908e-25 1.77663386e-13 1.9372356e-27 1.87521441e-38)
(-2.27481892e-13 3.27153111e-15 -2.59719316e-25 2.27481892e-13 2.35188879e-27 2.59676602e-40)
(-2.75076889e-13 3.12074423e-15 -4.34325058e-30 2.75076889e-13 3.1647495e-32 -8.36744918e-48)
(-3.14454791e-13 2.70026674e-15 -3.55662984e-31 3.14454791e-13 6.72649041e-33 -3.82016305e-49)
(-3.43276995e-13 2.01450918e-15 5.45504531e-31 3.43276995e-13 -5.52788006e-33 -8.58451065e-49)
(-3.51107859e-13 1.04978937e-15 1.65407886e-29 3.51107859e-13 -4.57554977e-32 -1.40686624e-46)
(-3.4772218e-13 -1.09592259e-16 -1.69260685e-30 3.4772218e-13 -7.70450723e-33 -7.40594519e-48)
(-3.01218167e-13 -1.37744442e-15 -2.58547269e-29 3.01218167e-13 -1.18914697e-32 1.04885248e-46)
(-2.60002071e-13 -2.71013933e-15 2.15690335e-29 2.60002071e-13 7.32554869e-32 -9.23967522e-47)
(-1.5786823e-13 -3.15149417e-15 6.54300824e-31 1.5786823e-13 1.46208805e-32 2.57509694e-47)
(-1.00893275e-13 -3.75784911e-15 -6.35252386e-30 1.00893275e-13 -1.36218067e-31 2.05008407e-46)
(-2.28276146e-14 -2.70287715e-15 1.08406776e-30 2.28276146e-14 8.42722433e-32 2.64802123e-47)
(-1.68001193e-16 2.41500196e-17 1.80923474e-31 1.68001193e-16 -1.23231107e-32 -8.04952371e-50)
(-8.03462302e-15 -1.94409115e-15 -2.21027521e-28 8.03462302e-15 -2.66101535e-29 5.29341074e-45)
(2.90113638e-14 1.36003079e-14 4.60439923e-29 -2.90113638e-14 2.343345e-31 4.78664419e-44)
(1.12168908e-14 8.43824874e-15 -7.59954839e-29 -1.12168908e-14 -1.81628064e-29 4.28975572e-43)
(2.55023341e-15 1.54032148e-15 -6.71189052e-29 -2.55023341e-15 -2.4213125e-29 7.85933226e-43)
(6.2684694e-14 6.92486864e-14 4.33033322e-28 -6.2684694e-14 1.96637618e-28 -4.00097497e-42)
(2.12532206e-13 3.12668432e-13 1.88756678e-28 -2.12532206e-13 1.26911951e-28 -1.25609484e-43)
(4.01488114e-13 7.53641219e-13 -8.53671844e-29 -4.01488114e-13 -9.96643545e-29 -3.46670632e-43)
(5.1158981e-13 1.18018981e-12 7.59074546e-27 -5.1158981e-13 4.98577783e-27 -4.95084831e-42)
(1.22744077e-13 3.35080963e-13 -8.22349267e-27 -1.22744077e-13 -5.66829974e-27 -6.78769715e-42)
(-1.23725674e-12 -3.84551929e-12 -7.22552827e-27 1.23725674e-12 -5.33033954e-27 6.06781774e-42)
(-4.25898027e-12 -1.44249301e-11 -1.31714357e-26 4.25898027e-12 -9.7946481e-27 -2.17886256e-43)
(-7.8249563e-12 -2.77201931e-11 -1.10773287e-26 7.8249563e-12 -8.35332737e-27 3.87443883e-42)
(-1.1339794e-11 -4.18841141e-11 1.16484671e-27 1.1339794e-11 1.27707955e-27 2.49381664e-43)
(-1.44896372e-11 -5.66229974e-11 1.41464238e-27 1.44896372e-11 1.62673415e-27 2.50859823e-43)
(-1.72853097e-11 -7.27860546e-11 1.55956283e-27 1.72853097e-11 1.91255405e-27 2.3620139e-43)
(-2.03153231e-11 -9.41138456e-11 4.00665453e-26 2.03153231e-11 3.27878602e-26 -6.45796647e-42)
(-2.44150644e-11 -1.27255211e-10 3.32783524e-26 2.44150644e-11 2.6096409e-26 -2.0851067e-42)
(-3.55471005e-11 -2.02900642e-10 -1.68703015e-26 3.55471005e-11 -1.57461277e-26 4.15030105e-42)
(-6.23598029e-11 -3.32981291e-10 3.31603809e-27 6.23598029e-11 2.99575785e-27 1.1433985e-44)
(-1.25871335e-10 -5.36173099e-10 2.19021247e-26 1.25871335e-10 1.6643699e-26 1.16251254e-42)
(-2.99823463e-10 -9.12329796e-10 -2.91713005e-26 2.99823463e-10 -2.05665564e-26 2.91097888e-43)
(-7.14251102e-10 -1.43265928e-09 -7.21274712e-27 7.14251102e-10 -1.96990388e-27 4.76187474e-43)
(-1.40618843e-09 -1.68886101e-09 1.48606513e-26 1.40618843e-09 6.60294614e-27 2.55952409e-44)
(-7.67454839e-10 -4.77574088e-10 -5.34844325e-28 7.67454839e-10 -3.95889521e-27 1.2572804e-44)
(-1.18540821e-10 -3.31002888e-11 5.9889464e-27 1.18540821e-10 8.18872938e-28 -2.58841578e-46)
(2.76928056e-11 2.27969212e-12 8.09446486e-29 -2.76928056e-11 -5.33963617e-30 7.76087339e-47)
(-3.58963485e-12 -5.94844596e-14 -6.75065948e-29 3.58963485e-12 -5.2047729e-31 -8.25979989e-50)
(6.38646838e-10 1.19838728e-12 -7.8484512e-30 -6.38646838e-10 -3.27847783e-32 -7.18009141e-52)
(-1.54938967e-09 5.44597042e-11 1.35298693e-27 1.54938967e-09 9.58732407e-29 1.40882038e-45)
(1.32965059e-09 -2.15110671e-10 5.61912596e-23 -1.32965059e-09 -4.42785799e-24 3.27413755e-39)
(5.39137618e-11 -1.06938096e-11 -8.56816331e-24 -5.39137618e-11 -5.46277429e-25 3.27416983e-37)
(6.93992522e-11 -1.12598604e-10 4.45314993e-24 -6.93992522e-11 -3.18313681e-24 1.92137249e-37)
(5.69636485e-11 -1.18164257e-10 -6.90064983e-24 -5.69636485e-11 4.39473383e-24 -7.21579695e-39)
(2.54120515e-11 -7.70490069e-11 -4.42898429e-27 -2.54120515e-11 1.40815509e-27 2.3923398e-43)
(1.11742743e-11 -4.91892762e-11 4.9932284e-24 -1.11742743e-11 -4.02325939e-24 -1.23626757e-38)
(7.96299429e-12 -4.40257073e-11 4.84685159e-24 -7.96299429e-12 -4.13253798e-24 -2.99531632e-37)
(5.30565642e-12 -3.07829813e-11 -4.36601562e-24 -5.30565642e-12 3.7614557e-24 2.51093067e-37)
(4.52267788e-12 -2.38065279e-11 -5.10562046e-24 -4.52267788e-12 4.23763575e-24 -2.08254586e-38)
(3.80656325e-12 -1.81514563e-11 -1.06743638e-30 -3.80656325e-12 8.05789757e-31 -8.0012531e-50)
(3.29789118e-12 -1.46650927e-11 -3.37106606e-26 -3.29789118e-12 2.69983288e-26 -7.00199151e-43)
(3.10004997e-12 -1.32149888e-11 8.21664765e-26 -3.10004997e-12 -6.42582701e-26 -6.68704084e-41)
(3.43076553e-12 -1.42575714e-11 5.33045035e-26 -3.43076553e-12 -4.18141117e-26 -1.90614623e-41)
(6.46917959e-12 -2.6375922e-11 -7.57262084e-26 -6.46917959e-12 5.94422285e-26 -1.2563148e-42)
(1.12360586e-11 -4.41498257e-11 -1.55445161e-25 -1.12360586e-11 1.2229587e-25 4.13332996e-41)
(2.11901466e-11 -7.57800551e-11 -1.52424594e-25 -2.11901466e-11 1.05923971e-25 -8.66453779e-41)
(3.68454609e-11 -1.13553324e-10 2.45767625e-25 -3.68454609e-11 -1.67631695e-25 -6.764414e-41)
(5.95404919e-11 -1.51254381e-10 -4.26627962e-25 -5.95404919e-11 3.10242541e-25 1.03652034e-40)
(7.4285213e-11 -1.50349499e-10 5.48909317e-25 -7.4285213e-11 -3.77439389e-25 1.45224672e-40)
(8.3715466e-11 -1.3142347e-10 1.45421412e-24 -8.3715466e-11 -8.152366e-25 1.24565447e-40)
(8.22057864e-11 -9.88933617e-11 -8.93671837e-25 -8.22057864e-11 3.12151996e-25 -3.47821411e-40)
(5.00678105e-11 -4.5506385e-11 -5.17710141e-25 -5.00678105e-11 1.98763337e-25 -2.15525208e-42)
(-5.53029723e-12 3.67758137e-12 -7.47848847e-25 5.53029723e-12 1.67314114e-25 -1.03447646e-40)
(9.9652238e-11 -4.52201421e-11 1.23349131e-22 -9.9652238e-11 -2.63200471e-23 -1.01292665e-37)
(-4.66629822e-10 1.29458829e-10 1.3904444e-22 4.66629822e-10 -6.4916029e-24 -2.97891558e-36)
(-9.91068035e-11 1.33731695e-11 -2.31178031e-22 9.91068035e-11 2.58126996e-23 4.43314131e-36)
(-3.15559716e-10 2.14763012e-11 -2.88730602e-22 3.15559716e-10 9.77004995e-24 2.87218572e-38)
(-1.292328e-09 6.37588875e-11 2.61841172e-30 1.292328e-09 -6.27953664e-32 1.62219955e-54)
(-1.29755459e-09 4.67730308e-11 6.02225542e-22 1.29755459e-09 -1.05605914e-23 6.29625897e-38)
(-1.82088645e-09 5.04590129e-11 6.55170244e-22 1.82088645e-09 -1.13138956e-23 -8.03973786e-36)
(-2.08736899e-09 4.50459154e-11 -8.70323211e-22 2.08736899e-09 6.26756437e-24 1.06949773e-35)
(-2.39457712e-09 4.07233253e-11 -9.0363111e-22 2.39457712e-09 7.22615948e-24 8.38649196e-38)
(-2.60352996e-09 3.48078182e-11 -7.1256535e-26 2.60352996e-09 5.49375782e-28 -4.5470394e-46)
(-2.76580389e-09 2.86449498e-11 5.11968939e-26 2.76580389e-09 -1.19344334e-28 8.85681898e-46)
(-2.8518274e-09 2.21428494e-11 2.74591519e-26 2.8518274e-09 -1.76248391e-28 -2.93972667e-46)
(-2.87312012e-09 1.5745475e-11 -1.27999125e-21 2.87312012e-09 2.93084634e-24 1.09396281e-37)
(-2.82413435e-09 9.68747607e-12 -1.32759687e-21 2.82413435e-09 2.13576053e-24 -1.53438676e-35)
(-2.71683292e-09 4.22986143e-12 1.30425531e-21 2.71683292e-09 -6.89665866e-25 1.6126243e-35)
(-2.56037757e-09 -4.64403632e-13 1.33305445e-21 2.56037757e-09 6.4305112e-25 1.10209702e-37)
(-2.36215778e-09 -4.27846015e-12 5.45176982e-28 2.36215778e-09 -3.05104118e-30 1.9169942e-47)
(-2.12781208e-09 -7.13809468e-12 -3.47161428e-26 2.12781208e-09 -8.34817856e-29 -5.27535256e-45)
(-1.87061443e-09 -9.03810616e-12 -1.83039792e-26 1.87061443e-09 -6.35409904e-29 2.95970629e-45)
(-1.60164535e-09 -1.00230216e-11 5.18845146e-26 1.60164535e-09 1.57478578e-28 -2.57167302e-45)
(-1.33066659e-09 -1.01767918e-11 1.51744313e-21 1.33066659e-09 6.19302455e-24 1.40586612e-37)
(-1.06632196e-09 -9.61305022e-12 1.52753005e-21 1.06632196e-09 1.07348458e-23 -2.69693164e-35)
(-8.15953675e-10 -8.46411479e-12 -1.28824115e-21 8.15953675e-10 -3.25100207e-24 2.47701975e-35)
(-5.85437532e-10 -6.87070631e-12 -1.28749461e-21 5.85437532e-10 -7.74712532e-24 1.25004852e-37)
(-3.79239907e-10 -4.97465599e-12 -2.20505032e-26 3.79239907e-10 -1.51145727e-28 -2.56555569e-45)
(-2.00320974e-10 -2.91100738e-12 7.40196116e-27 2.00320974e-10 3.86052993e-29 -9.13242174e-46)
(-5.02781973e-11 -8.04111627e-13 1.11629427e-21 5.02781973e-11 8.94459448e-24 1.09032233e-37)
(7.05144179e-11 1.23518893e-12 1.09347523e-21 -7.05144179e-11 1.30060874e-23 -2.87005922e-35)
(1.6282924e-10 3.1129027e-12 -8.34691932e-22 -1.6282924e-10 -4.60503469e-24 2.40094284e-35)
(2.28366471e-10 4.75259975e-12 -8.12126982e-22 -2.28366471e-10 -8.32733889e-24 8.77297375e-38)
(2.69673299e-10 6.09874531e-12 2.16401411e-27 -2.69673299e-10 2.47369064e-29 7.46984043e-48)
(2.8986159e-10 7.11653233e-12 2.06573742e-27 -2.8986159e-10 2.54345119e-29 7.50172195e-48)
(2.92539178e-10 7.7965459e-12 -1.37213418e-28 -2.92539178e-10 9.08856102e-30 2.72253442e-47)
(2.81431282e-10 8.15160605e-12 -1.17688969e-27 -2.81431282e-10 -1.94567552e-29 -1.19176765e-46)
(2.60102086e-10 8.21128227e-12 1.76097674e-29 -2.60102086e-10 2.05984908e-30 -7.83827774e-49)
(2.31930628e-10 8.01941615e-12 1.03110925e-29 -2.31930628e-10 -7.7313155e-31 2.10016231e-50)
(1.99541752e-10 7.61003835e-12 1.06086222e-27 -1.99541752e-10 1.91982302e-29 1.00048696e-46)
(1.65550087e-10 7.02727087e-12 -7.00476974e-28 -1.65550087e-10 -7.86768131e-30 2.94789906e-46)
(1.31794889e-10 6.2996199e-12 -5.27861226e-28 -1.31794889e-10 -1.42066988e-29 -3.74974874e-48)
(1.00167502e-10 5.47592459e-12 2.98952306e-28 -1.00167502e-10 5.14065352e-30 1.24226548e-46)
(7.17799186e-11 4.58915267e-12 4.93463064e-29 -7.17799186e-11 3.27487716e-30 -2.13794036e-47)
(4.76364079e-11 3.68092098e-12 -1.46736669e-28 -4.76364079e-11 -1.18659083e-29 -3.1084646e-46)
(2.82402783e-11 2.77647393e-12 7.93092963e-29 -2.82402783e-11 8.24266186e-30 -1.66767787e-46)
(1.38838416e-11 1.8979254e-12 -5.39593655e-29 -1.38838416e-11 -7.88846289e-30 -1.70714455e-46)
(4.63460986e-12 1.06317985e-12 -3.64919175e-31 -4.63460986e-12 -9.07340848e-32 -2.54147992e-50)
(3.72005301e-13 2.90356381e-13 -4.2528068e-31 -3.72005301e-13 -4.90508362e-30 -6.15401836e-47)
(7.85550683e-13 -4.02971367e-13 -1.14484471e-24 -7.85550683e-13 2.31274376e-25 6.50140024e-38)
(5.4063503e-12 -1.00738659e-12 -1.08349145e-23 -5.4063503e-12 4.86885773e-25 5.81855241e-36)
(1.36994628e-11 -1.52158604e-12 9.23779155e-24 -1.36994628e-11 -1.21365515e-24 -8.40832536e-36)
(2.5108808e-11 -1.94738774e-12 7.03900925e-23 -2.5108808e-11 -2.79932939e-24 -1.88147184e-35)
(3.9088366e-11 -2.28759682e-12 5.06224454e-23 -3.9088366e-11 -1.32382144e-24 1.11105695e-37)
(5.50485673e-11 -2.5404891e-12 2.8042302e-27 -5.50485673e-11 -6.65943631e-29 -1.45296466e-44)
(7.24036438e-11 -2.70359407e-12 1.21087584e-27 -7.24036438e-11 -2.11266164e-29 -8.55667097e-46)
(9.04572159e-11 -2.76972247e-12 -1.21409876e-22 -9.04572159e-11 1.61763063e-24 1.67114923e-37)
(1.08558503e-10 -2.73206379e-12 -1.41654041e-22 -1.08558503e-10 1.24709606e-24 1.87848115e-35)
(1.25795462e-10 -2.57497932e-12 1.77817983e-22 -1.25795462e-10 -1.80445345e-24 -2.24499195e-35)
(1.41477435e-10 -2.28732713e-12 1.98227089e-22 -1.41477435e-10 -1.30108467e-24 2.11305509e-37)
(1.54159099e-10 -1.84503128e-12 2.69268598e-27 -1.54159099e-10 -6.76853417e-30 6.34858434e-45)
(1.63604254e-10 -1.24466517e-12 -5.79511821e-27 -1.63604254e-10 2.32748647e-29 -1.56139861e-44)
(1.67230998e-10 -4.71148014e-13 -1.24704393e-26 -1.67230998e-10 -1.40998565e-29 6.06524894e-44)
(1.67427085e-10 4.43940938e-13 1.26876176e-26 -1.67427085e-10 3.95059267e-29 3.00764319e-44)
(1.551003e-10 1.43310161e-12 5.0342379e-27 -1.551003e-10 -9.23133133e-30 -4.55400845e-44)
(1.46625275e-10 2.57233993e-12 -4.60743028e-27 -1.46625275e-10 -1.02001437e-29 -3.06707181e-44)
(1.14586378e-10 3.28639886e-12 6.82749433e-27 -1.14586378e-10 1.55806903e-28 4.57375284e-44)
(1.05819092e-10 4.68850067e-12 -1.1252098e-26 -1.05819092e-10 -3.55803046e-28 1.16925089e-43)
(5.64890982e-11 3.86571469e-12 7.45790061e-28 -5.64890982e-11 6.36610493e-29 2.29751207e-45)
(2.54290288e-11 3.24749162e-12 3.69166951e-27 -2.54290288e-11 2.415818e-28 1.05869714e-45)
(1.76262071e-11 4.78269417e-12 2.04189443e-26 -1.76262071e-11 3.80694419e-27 7.71262942e-42)
(-5.51590427e-12 -1.68917907e-12 6.95319029e-27 5.51590427e-12 -5.92811015e-27 6.15579256e-41)
(-3.65042496e-12 -1.36345125e-12 6.51853982e-26 3.65042496e-12 8.31050286e-27 1.90380345e-40)
(-2.11362568e-11 -1.10338754e-11 -1.71622746e-25 2.11362568e-11 -4.30877894e-26 5.78238245e-40)
(-4.01637978e-11 -2.92340781e-11 -4.32489002e-25 4.01637978e-11 -1.20652121e-25 -1.19457888e-39)
(-7.10400715e-11 -6.98423331e-11 3.42519051e-25 7.10400715e-11 1.72232223e-25 9.00389694e-40)
(-9.56656054e-11 -1.22485231e-10 4.4078868e-25 9.56656054e-11 1.56903152e-25 -6.32670678e-40)
(-1.19666209e-10 -1.93941128e-10 -1.79947742e-24 1.19666209e-10 -9.17282833e-25 -2.3142069e-39)
(-8.86030116e-11 -1.76381323e-10 7.81016077e-25 8.86030116e-11 3.75405999e-25 -6.9941198e-40)
(2.06192631e-11 4.89773171e-11 1.02545926e-24 -2.06192631e-11 5.82387771e-25 -6.95524493e-40)
(3.0416704e-10 8.37153587e-10 -9.10807647e-25 -3.0416704e-10 -5.48308241e-25 -7.18852174e-40)
(7.45832951e-10 2.29962857e-09 4.90610623e-24 -7.45832951e-10 3.47709473e-24 -3.18215984e-39)
(1.37829195e-09 4.58360157e-09 3.87535521e-24 -1.37829195e-09 2.94926941e-24 1.15745769e-39)
(1.84327844e-09 6.53159564e-09 4.22054427e-24 -1.84327844e-09 3.32940869e-24 1.10849928e-39)
(2.23322328e-09 8.4828078e-09 -8.1692541e-25 -2.23322328e-09 -4.97999801e-25 -2.79646554e-40)
(2.60942367e-09 1.07611221e-08 -4.90373476e-24 -2.60942367e-09 -3.72535317e-24 -1.1866654e-39)
(2.9889105e-09 1.36011964e-08 -7.71328847e-24 -2.9889105e-09 -6.16564178e-24 -3.76287468e-39)
(3.54055079e-09 1.80667394e-08 -6.53775131e-24 -3.54055079e-09 -5.59846372e-24 8.38482974e-40)
(4.61356634e-09 2.57618487e-08 4.50653873e-24 -4.61356634e-09 3.27331502e-24 1.0964017e-40)
(7.85790577e-09 4.15035695e-08 8.28452668e-24 -7.85790577e-09 6.84144233e-24 5.56319386e-40)
(1.53628802e-08 6.52286367e-08 -2.88175664e-24 -1.53628802e-08 -2.07763128e-24 1.20557963e-40)
(3.3070793e-08 1.00741022e-07 -7.07674041e-25 -3.3070793e-08 -1.86000175e-24 -2.64996898e-41)
(7.5304193e-08 1.52064593e-07 8.30283664e-24 -7.5304193e-08 2.5167256e-24 1.8426398e-40)
(1.31064018e-07 1.60740104e-07 3.38111637e-24 -1.31064018e-07 3.17005923e-24 -1.49879122e-41)
(1.20513457e-07 7.87331738e-08 -3.2953706e-25 -1.20513457e-07 2.93436374e-25 5.15572468e-42)
(-1.60212821e-08 -5.04770167e-09 -1.45794414e-24 1.60212821e-08 -2.2570498e-25 -9.25506922e-44)
(-6.44038328e-09 -7.82129281e-10 -8.81787047e-26 6.44038328e-09 8.59090781e-27 1.87373684e-43)
(-5.18884276e-09 -2.20226554e-10 3.52112605e-30 5.18884276e-09 -3.40599265e-31 2.69454509e-51)
(-1.73775529e-08 -2.11684917e-10 2.35893711e-25 1.73775529e-08 1.38236986e-27 1.89987481e-47)
(-8.71362976e-08 2.14518213e-09 -4.35107609e-26 8.71362976e-08 -1.40425633e-25 1.54394683e-43)
(3.56640176e-08 -4.56784726e-09 -2.01106293e-21 -3.56640176e-08 1.26405218e-22 7.77617384e-38)
(-3.67502096e-09 8.57313548e-10 -1.55464719e-21 3.67502096e-09 7.38425737e-23 3.71080261e-35)
(4.99728441e-11 -1.93790451e-10 1.92524874e-22 -4.99728441e-11 -1.68197246e-22 2.1247069e-35)
(1.30218147e-10 -2.72000126e-10 1.38125823e-22 -1.30218147e-10 -8.8127512e-23 -2.02880138e-37)
(2.57426849e-10 -7.24212297e-10 -3.64686628e-25 -2.57426849e-10 2.61480072e-25 -2.40170748e-42)
(4.93577037e-11 -1.99404439e-10 -3.64234462e-25 -4.93577037e-11 2.29075809e-25 7.84033942e-41)
(5.7304452e-11 -2.85952427e-10 -1.81153441e-23 -5.7304452e-11 2.18476511e-23 -2.079195e-36)
(2.43540108e-11 -1.26949045e-10 -2.83562933e-23 -2.43540108e-11 2.25645185e-23 -2.87909793e-36)
(3.11079173e-11 -1.50641131e-10 -3.90871267e-25 -3.11079173e-11 3.39128467e-25 1.54697643e-40)
(2.33561e-11 -1.0590205e-10 -6.46908542e-29 -2.33561e-11 1.72889583e-29 -2.49702687e-47)
(1.87643165e-11 -8.17430399e-11 8.84455609e-25 -1.87643165e-11 -7.03694104e-25 -1.97822971e-41)
(1.53575766e-11 -6.59163189e-11 5.8650043e-26 -1.53575766e-11 -4.91391638e-26 -3.50788918e-43)
(9.20767513e-12 -3.93219275e-11 -5.30183258e-25 -9.20767513e-12 3.52776184e-25 -7.18161807e-40)
(3.49099922e-11 -1.47413309e-10 1.63610117e-27 -3.49099922e-11 -1.17613698e-27 -1.40551657e-45)
(3.89180867e-11 -1.57570925e-10 1.46886436e-24 -3.89180867e-11 -1.38993597e-24 1.3375088e-39)
(9.45785505e-11 -3.44880833e-10 1.5508149e-25 -9.45785505e-11 -1.19839504e-25 3.05194139e-43)
(1.69375768e-10 -5.26249975e-10 -7.75362778e-25 -1.69375768e-10 1.25224912e-24 4.32608243e-40)
(3.19735688e-10 -8.10741592e-10 3.82352558e-25 -3.19735688e-10 -1.54923462e-24 3.71353246e-40)
(3.00519288e-10 -6.03642518e-10 -1.34360506e-23 -3.00519288e-10 1.04519888e-23 5.58920256e-39)
(4.02862553e-10 -6.27255874e-10 -1.98065513e-23 -4.02862553e-10 1.03502892e-23 -7.53556724e-40)
(5.47817412e-10 -6.54466601e-10 2.03796442e-23 -5.47817412e-10 -1.45930392e-23 9.29652648e-39)
(2.57413573e-10 -2.32796831e-10 2.74022089e-23 -2.57413573e-10 -1.67424489e-23 1.19114758e-38)
(-3.52727744e-10 2.34461624e-10 3.70969556e-23 3.52727744e-10 -1.90711066e-23 1.61846747e-38)
(3.88474973e-09 -1.78968315e-09 2.4091763e-23 -3.88474973e-09 -4.67897054e-24 -5.948742e-40)
(-1.44961802e-08 4.31980384e-09 4.26921896e-22 1.44961802e-08 -8.8441561e-22 1.8921757e-35)
(-1.1573185e-09 1.95211354e-10 2.38528147e-21 1.1573185e-09 -9.18519839e-22 6.05768739e-35)
(-2.35243342e-09 2.46473874e-10 -1.96678511e-25 2.35243342e-09 1.02910459e-26 3.29789179e-46)
(-2.09532829e-08 1.65474403e-09 8.3812797e-26 2.09532829e-08 -8.85676808e-27 3.88806322e-44)
(-1.38594933e-08 8.17748538e-10 -7.42574403e-26 1.38594933e-08 6.40510436e-27 3.0843186e-44)
(-1.93828376e-08 8.92724696e-10 3.23045384e-21 1.93828376e-08 -2.36548402e-22 6.35179168e-35)
(-1.90790831e-08 6.92238886e-10 2.78747961e-21 1.90790831e-08 -1.79203013e-22 5.27889052e-35)
(-2.03062773e-08 5.84816996e-10 1.60328754e-25 2.03062773e-08 -9.40149516e-27 2.02976108e-43)
(-2.0193235e-08 4.58179174e-10 -8.54134132e-26 2.0193235e-08 4.78456417e-27 6.95115923e-44)
(-2.00038921e-08 3.50019171e-10 -5.70661691e-27 2.00038921e-08 3.25502654e-28 3.95613989e-46)
(-1.92148431e-08 2.48219129e-10 4.38126516e-27 1.92148431e-08 -2.77378694e-28 3.21298048e-46)
(-1.81023669e-08 1.58999425e-10 2.62575204e-25 1.81023669e-08 -1.10351776e-27 3.17824941e-46)
(-1.65867173e-08 8.25504517e-11 -4.17220331e-22 1.65867173e-08 5.72791574e-23 9.86949868e-36)
(-1.49157621e-08 2.09690475e-11 -3.91002985e-23 1.49157621e-08 5.24163164e-23 2.35669489e-36)
(-1.30189341e-08 -2.59338182e-11 -1.68352381e-26 1.30189341e-08 2.26158946e-28 1.3333486e-46)
(-1.08996016e-08 -5.72649711e-11 -2.5899336e-25 1.08996016e-08 -1.79028109e-27 -1.57798669e-44)
(-8.73928166e-09 -7.35875279e-11 2.35492065e-25 8.73928166e-09 5.37065819e-28 5.67189261e-44)
(-6.65758578e-09 -7.67727183e-11 2.68193706e-25 6.65758578e-09 1.67043864e-27 -1.37950574e-44)
(-4.71300229e-09 -6.89050614e-11 5.79421154e-26 4.71300229e-09 3.64602681e-27 -4.96810608e-44)
(-2.95722653e-09 -5.23946505e-11 -5.33787867e-25 2.95722653e-09 -6.65372807e-27 -5.21680231e-43)
(-1.42579112e-09 -2.97370214e-11 -2.10803121e-21 1.42579112e-09 -7.66049818e-23 -6.93430606e-35)
(-1.39235344e-10 -3.35180884e-12 -2.27174482e-21 1.39235344e-10 -8.36837375e-23 -8.06168383e-35)
(8.9585046e-10 2.45522655e-11 -2.75354321e-26 -8.9585046e-10 -1.04760226e-27 -1.21502418e-44)
(1.6835488e-09 5.2025854e-11 0 -1.6835488e-09 0 0)
(2.23822907e-09 7.7468749e-11 3.37496335e-27 -2.23822907e-09 1.42181361e-28 -2.04892522e-46)
(2.58144958e-09 9.96272922e-11 -2.62626226e-21 -2.58144958e-09 -1.17941337e-22 -1.35424416e-34)
(2.73934718e-09 1.17570696e-10 -5.11744836e-21 -2.73934718e-09 -2.46569763e-22 -5.72237055e-34)
(2.74175764e-09 1.30714051e-10 -2.43752966e-21 -2.74175764e-09 -1.26738174e-22 -1.47394653e-34)
(2.61940664e-09 1.38752323e-10 4.70843551e-26 -2.61940664e-09 7.4851019e-28 5.61519543e-45)
(2.4035838e-09 1.41692651e-10 3.27500639e-26 -2.4035838e-09 1.32529274e-27 -1.14981178e-44)
(2.12352974e-09 1.3976479e-10 2.03693985e-26 -2.12352974e-09 6.94779486e-28 -8.79529524e-47)
(1.80708279e-09 1.3349584e-10 -5.2000789e-27 -1.80708279e-09 -1.47936214e-28 -1.48780497e-45)
(1.47829641e-09 1.23581293e-10 -1.10390783e-26 -1.47829641e-09 -3.97707519e-28 9.58720849e-46)
(1.15694473e-09 1.1079251e-10 -1.13494534e-27 -1.15694473e-09 -1.09011891e-28 -1.15384397e-46)
(8.59991848e-10 9.60394097e-11 9.93225552e-28 -8.59991848e-10 1.10970995e-28 -1.23983447e-46)
(5.97788437e-10 7.98942956e-11 4.47970136e-27 -5.97788437e-10 2.37574439e-28 6.72831897e-46)
(3.80089716e-10 6.3185095e-11 -2.48769105e-27 -3.80089716e-10 -3.53236705e-28 -1.91241301e-45)
(2.10445984e-10 4.63013253e-11 -1.83806019e-27 -2.10445984e-10 1.65464411e-29 1.86538193e-45)
(9.15896749e-11 2.99304916e-11 -4.66997387e-29 -9.15896749e-11 -4.43298424e-29 -4.20790238e-48)
(2.22150833e-11 1.43586167e-11 -2.64964882e-28 -2.22150833e-11 -6.99987627e-29 2.49114697e-47)
(3.66452175e-17 -7.73567408e-15 9.55023879e-29 -3.66452175e-17 -6.56474921e-28 -6.12861184e-45)
(2.07916726e-11 -1.29538256e-11 -2.14359783e-22 -2.07916726e-11 1.37017219e-22 -2.92918173e-34)
(7.90224118e-11 -2.42162206e-11 -4.15285823e-22 -7.90224118e-11 1.31497557e-22 -2.93405166e-34)
(1.67392943e-10 -3.3532903e-11 2.4986847e-27 -1.67392943e-10 -5.51091582e-28 -5.42816989e-45)