/*--------------------------------*- C++ -*----------------------------------*\
| =========                 |                                                 |
| \\      /  F ield         | OpenFOAM: The Open Source CFD Toolbox           |
|  \\    /   O peration     | Version:  2506                                  |
|   \\  /    A nd           | Website:  www.openfoam.com                      |
|    \\/     M anipulation  |                                                 |
\*---------------------------------------------------------------------------*/
FoamFile
{
    version     2.0;
    format      ascii;
    arch        "LSB;label=32;scalar=64";
    class       volSymmTensorField;
    location    "2644";
    object      Tij6;
}
// * * * * * * * * * * * * * * * * * * * * * * * * * * * * * * * * * * * * * //

dimensions      [0 0 0 0 0 0 0];

internalField   nonuniform List<symmTensor> 
15600
(
(-3.64354967e-12 -1.25437936e-09 -1.21166888e-31 2.95317113e-12 1.54872682e-31 6.90378538e-13)
(-7.40420077e-11 -1.63953339e-09 -6.86704484e-28 7.55716667e-11 3.65862937e-28 -1.529659e-12)
(-1.14666354e-10 -5.29904159e-10 2.53974574e-30 1.13805056e-10 2.14377886e-29 8.61297223e-13)
(5.58614173e-15 -5.0501451e-14 9.07166119e-28 -1.8641069e-15 -7.24788155e-27 -3.72203483e-15)
(5.54542905e-11 4.3973977e-11 -5.1065538e-25 -5.49240435e-11 -1.04478191e-24 -5.30246992e-13)
(7.20036479e-11 3.53072742e-11 1.83294328e-27 -7.15634983e-11 3.93719102e-27 -4.40149624e-13)
(3.71559978e-11 1.18892415e-11 1.06019664e-27 -3.7017038e-11 1.44532947e-27 -1.3895977e-13)
(3.01608289e-11 6.75328774e-12 1.203489e-26 -3.00298686e-11 1.52398226e-26 -1.30960352e-13)
(2.50463161e-11 4.43255986e-12 -1.01110658e-25 -2.49512288e-11 -1.95189656e-25 -9.50873804e-14)
(2.1465468e-11 3.57801669e-12 -1.30072152e-25 -2.13857989e-11 -2.16517253e-25 -7.9669143e-14)
(1.8622153e-11 3.42863999e-12 -1.16876806e-26 -1.85699678e-11 -1.39879786e-26 -5.21851711e-14)
(1.85242733e-11 3.8301188e-12 -3.07623832e-31 -1.84836052e-11 -4.28656176e-31 -4.06681363e-14)
(2.04136033e-11 4.60302121e-12 6.56463179e-29 -2.03813356e-11 8.20245553e-29 -3.22677668e-14)
(2.55100214e-11 6.11600323e-12 4.94443806e-27 -2.5482199e-11 6.26065676e-27 -2.78223961e-14)
(3.5780259e-11 8.94767621e-12 -5.16493589e-27 -3.57500286e-11 -7.01285796e-27 -3.02304802e-14)
(5.4044521e-11 1.39007392e-11 2.65562781e-29 -5.40002577e-11 3.39032155e-29 -4.42633036e-14)
(8.10661469e-11 2.15917062e-11 -2.65245874e-27 -8.09768726e-11 -4.37508047e-27 -8.92742498e-14)
(1.16067495e-10 3.3681738e-11 -4.57025242e-27 -1.15919467e-10 -4.71666084e-27 -1.48028136e-13)
(1.57899989e-10 5.25767595e-11 1.12335254e-26 -1.57672221e-10 1.55578717e-26 -2.27768812e-13)
(1.99926476e-10 7.97560271e-11 1.16968097e-26 -1.99628839e-10 1.72126291e-26 -2.97637339e-13)
(2.31976369e-10 1.14928222e-10 5.38313929e-27 -2.31648161e-10 1.19849403e-26 -3.28207919e-13)
(2.49797513e-10 1.58631199e-10 -5.25955396e-27 -2.495457e-10 -1.37095352e-26 -2.51813734e-13)
(2.53789143e-10 2.09673873e-10 -2.6067494e-26 -2.53665389e-10 -5.5339783e-26 -1.23753988e-13)
(2.38143746e-10 2.59730233e-10 -1.7379265e-28 -2.38159156e-10 -4.66118006e-28 1.54095249e-14)
(2.03187118e-10 3.02726258e-10 -1.85023898e-26 -2.03356267e-10 -6.08146327e-26 1.69149268e-13)
(1.56172319e-10 3.42816933e-10 1.78739215e-26 -1.56643803e-10 9.0062325e-26 4.71483923e-13)
(9.67394224e-11 3.65083485e-10 -6.67385501e-26 -9.68459529e-11 -1.93984614e-24 1.06530512e-13)
(5.56793429e-11 5.66921868e-10 1.74391748e-25 -5.67849809e-11 -2.34658375e-24 1.10563798e-12)
(3.6265744e-11 1.31186501e-09 1.57251413e-27 -3.86228265e-11 6.2400528e-26 2.35708247e-12)
(4.86346213e-11 2.48018502e-09 -3.40352155e-36 -5.13056738e-11 -3.17174262e-34 2.67105253e-12)
(5.42955931e-11 3.77553064e-09 -1.09328376e-27 -5.83647112e-11 -1.4817911e-25 4.0691181e-12)
(5.84012151e-11 5.20348746e-09 2.90348124e-24 -6.32527163e-11 -1.2606467e-23 4.85150119e-12)
(5.94018251e-11 6.64321705e-09 3.76331383e-24 -6.52467584e-11 -1.33282325e-23 5.84493333e-12)
(5.85406499e-11 8.05194601e-09 8.445372e-28 -6.51842294e-11 2.46719295e-25 6.64357953e-12)
(5.58887975e-11 9.37374641e-09 3.84992152e-30 -6.32764125e-11 1.48813689e-27 7.38761501e-12)
(5.17229824e-11 1.05710373e-08 3.53355527e-30 -5.96909514e-11 1.70738379e-27 7.96796906e-12)
(4.62203357e-11 1.16077154e-08 -2.96078344e-30 -5.46188731e-11 -1.81706856e-27 8.39853743e-12)
(3.96859615e-11 1.24580219e-08 4.79645642e-28 -4.83353519e-11 3.17392459e-25 8.64939037e-12)
(3.24523183e-11 1.31046913e-08 -7.17343617e-24 -4.11867387e-11 2.57476195e-23 8.73442043e-12)
(2.48204797e-11 1.35397405e-08 -7.46275532e-24 -3.34739768e-11 2.47903965e-23 8.65349706e-12)
(1.70699236e-11 1.37623945e-08 -1.02242543e-28 -2.54898447e-11 -3.26400309e-25 8.41992111e-12)
(9.46378707e-12 1.37794837e-08 4.94303395e-29 -1.75072794e-11 -3.3596017e-28 8.04349235e-12)
(2.23957177e-12 1.36041635e-08 -4.88439964e-29 -9.79111485e-12 -9.32344293e-28 7.55154308e-12)
(-4.40698126e-12 1.32544598e-08 4.66818562e-29 -2.56332889e-12 2.18706969e-27 6.97031014e-12)
(-1.03245461e-11 1.27521932e-08 -4.66673488e-29 3.99963728e-12 3.96018031e-28 6.32490884e-12)
(-1.54102407e-11 1.21216817e-08 1.63182421e-28 9.7699864e-12 -2.85551691e-25 5.6402543e-12)
(-1.96072503e-11 1.13884513e-08 6.54080475e-24 1.46674652e-11 -3.15680737e-23 4.9397851e-12)
(-2.28990187e-11 1.05781315e-08 6.10316723e-24 1.86545266e-11 -2.94186128e-23 4.24449213e-12)
(-2.53029334e-11 9.71553999e-09 -2.01414829e-28 2.17304909e-11 2.22678541e-25 3.57244251e-12)
(-2.68632489e-11 8.82396052e-09 -1.57241741e-29 2.39250053e-11 -4.17402952e-28 2.93824359e-12)
(-2.76432392e-11 7.92464298e-09 1.24456772e-29 2.52898956e-11 9.8881558e-28 2.35334359e-12)
(-2.77199686e-11 7.03648046e-09 1.66401812e-28 2.5894022e-11 -1.40837732e-25 1.82594664e-12)
(-2.71801593e-11 6.17579621e-09 3.45447142e-24 2.58190072e-11 -2.46280491e-23 1.36115211e-12)
(-2.61162602e-11 5.35623633e-09 3.00939851e-24 2.51549428e-11 -2.24669247e-23 9.61317444e-13)
(-2.46238455e-11 4.58874655e-09 -1.37669283e-28 2.39975586e-11 8.76370437e-26 6.26286924e-13)
(-2.28000542e-11 3.88159165e-09 -1.41488361e-32 2.2446183e-11 4.84084295e-30 3.53871186e-13)
(-2.07427031e-11 3.24039435e-09 -1.29332138e-32 2.06027422e-11 3.9666881e-30 1.39960901e-13)
(-1.8548661e-11 2.6682011e-09 1.58450649e-30 1.85694826e-11 -1.05172952e-28 -2.08215863e-14)
(-1.63111982e-11 2.16558471e-09 -1.4055035e-30 1.64462897e-11 -4.05297473e-29 -1.35091469e-13)
(-1.41127207e-11 1.73086343e-09 4.65997014e-31 1.43229374e-11 -9.67692628e-30 -2.10216652e-13)
(-1.20175319e-11 1.36054758e-09 -1.23928687e-31 1.22706982e-11 2.87084152e-29 -2.53166273e-13)
(-1.00679882e-11 1.04988441e-09 -2.13445155e-31 1.03391729e-11 -5.86502452e-29 -2.71184682e-13)
(-8.28630574e-12 7.93499217e-10 6.81244593e-31 8.55575109e-12 -5.48934634e-29 -2.6944535e-13)
(-6.68610412e-12 5.85741969e-10 -3.755755e-31 6.93976267e-12 6.84184934e-29 -2.53658552e-13)
(-5.27639752e-12 4.20842806e-10 -3.4355201e-34 5.50414624e-12 2.25554771e-32 -2.27748724e-13)
(-4.06288322e-12 2.92942216e-10 7.35718268e-32 4.25932203e-12 3.13746576e-29 -1.96438808e-13)
(-3.04125191e-12 1.96278012e-10 -3.80098084e-32 3.20384539e-12 -2.40745694e-29 -1.6259348e-13)
(-2.20059707e-12 1.25422409e-10 -2.77040405e-34 2.32953743e-12 1.36425958e-32 -1.28940359e-13)
(-1.52523338e-12 7.54038547e-11 0 1.62245747e-12 0 -9.72240914e-14)
(-9.98219502e-13 4.17841414e-11 0 1.06710073e-12 0 -6.88812288e-14)
(-6.03044692e-13 2.06468454e-11 0 6.47967438e-13 0 -4.4922746e-14)
(-3.23168435e-13 8.57072655e-12 5.77851403e-29 3.49115314e-13 -9.12579524e-28 -2.59468791e-14)
(-1.41231335e-13 2.63170907e-12 -6.97535608e-27 1.53448305e-13 2.28291134e-25 -1.22169704e-14)
(-3.95474129e-14 4.15817149e-13 -6.42026023e-27 4.32314414e-14 1.38204667e-25 -3.6840285e-15)
(-1.40123235e-15 2.96623452e-15 -5.70880821e-28 1.54168969e-15 2.38199969e-27 -1.40457334e-16)
(-1.1850768e-14 -7.82074023e-14 1.24592482e-29 1.31285315e-14 6.04456975e-28 -1.2777635e-15)
(-5.76586325e-14 -9.05153402e-13 -8.49659919e-32 6.43537948e-14 -2.99496673e-30 -6.69516228e-15)
(-1.26675184e-13 -3.20454102e-12 -6.14575443e-32 1.42556049e-13 -3.23526757e-30 -1.58808652e-14)
(-2.07287565e-13 -7.37847914e-12 -6.07819387e-29 2.35509928e-13 -6.71873938e-27 -2.82223624e-14)
(-2.87880937e-13 -1.3515721e-11 1.37992007e-26 3.30836571e-13 6.98211606e-25 -4.29556343e-14)
(-3.56386422e-13 -2.13918482e-11 1.89205695e-26 4.15608159e-13 1.03293709e-24 -5.92217379e-14)
(-4.00005283e-13 -3.04501698e-11 7.43469211e-29 4.75833025e-13 1.61904922e-26 -7.58277422e-14)
(-4.05806552e-13 -3.98107738e-11 -5.19812612e-32 4.97499014e-13 -3.95835561e-29 -9.16924618e-14)
(-3.61895877e-13 -4.82471497e-11 -3.58557511e-31 4.66714005e-13 -4.23294598e-29 -1.04818128e-13)
(-2.61729458e-13 -5.43484598e-11 2.66322463e-31 3.76154657e-13 9.48746544e-29 -1.14425199e-13)
(-1.10647653e-13 -5.65783018e-11 -3.07016041e-31 2.27683139e-13 2.52533398e-28 -1.17035487e-13)
(7.49773048e-14 -5.40153636e-11 1.16714494e-30 4.09290556e-14 -3.4654398e-28 -1.1590636e-13)
(2.603067e-13 -4.59453249e-11 -6.05324174e-31 -1.59901231e-13 9.22044929e-29 -1.00405469e-13)
(3.96469868e-13 -3.38788132e-11 -6.68942334e-31 -3.0980377e-13 7.34469415e-29 -8.66660976e-14)
(4.13415253e-13 -1.93912327e-11 2.33273763e-30 -3.60791903e-13 -1.80011234e-28 -5.262335e-14)
(3.02861322e-13 -7.67997966e-12 -2.47579271e-30 -2.69232405e-13 1.11220669e-28 -3.36289163e-14)
(1.14070366e-13 -9.31215445e-13 6.69714217e-31 -1.06448596e-13 -1.02313776e-29 -7.62176995e-15)
(1.75313577e-14 1.21768731e-13 1.42130346e-33 -1.74769322e-14 -2.73709283e-32 -5.44255536e-17)
(-3.10209724e-13 1.28768139e-12 2.96093187e-30 3.12935877e-13 -1.61884682e-29 -2.72615267e-15)
(-3.12559433e-13 6.55482046e-13 -3.44564992e-28 3.02010617e-13 1.47034732e-27 1.05488167e-14)
(-8.13778278e-14 1.05111359e-13 2.37096655e-28 7.67686334e-14 -6.52084109e-28 4.60919439e-15)
(3.5805507e-15 -6.74267093e-15 -5.87963959e-29 -4.56449269e-15 3.26618261e-28 9.83941984e-16)
(8.41428519e-13 -7.75709806e-13 -1.44225114e-27 -8.72447122e-13 3.43885245e-27 3.10186033e-14)
(7.06904144e-12 -4.8477593e-12 5.64446478e-27 -7.19459722e-12 -1.09504462e-26 1.25555779e-13)
(3.27198999e-11 -1.75065139e-11 -1.51697696e-26 -3.30037417e-11 2.56015638e-26 2.8384172e-13)
(1.12836164e-10 -4.90050876e-11 -1.73332987e-26 -1.13264136e-10 2.8112893e-26 4.27972158e-13)
(3.17653749e-10 -1.16382048e-10 6.73146561e-26 -3.1777257e-10 -9.23748092e-26 1.18821184e-13)
(7.50515544e-10 -2.41254239e-10 -1.46641016e-25 -7.49169688e-10 2.00679026e-25 -1.34585614e-12)
(1.50784906e-09 -4.44454481e-10 6.22806837e-27 -1.50283632e-09 -8.29312344e-27 -5.01274759e-12)
(2.50303246e-09 -7.05210069e-10 -1.94602189e-25 -2.49343233e-09 2.55661848e-25 -9.60013059e-12)
(3.50388367e-09 -9.46691367e-10 8.17141695e-26 -3.48942311e-09 -1.46455382e-25 -1.44605622e-11)
(4.44950796e-09 -1.1361225e-09 8.34342457e-26 -4.43003273e-09 -1.57304521e-25 -1.94752296e-11)
(5.37506795e-09 -1.27351724e-09 8.09034354e-26 -5.35014285e-09 -1.61743639e-25 -2.49250967e-11)
(6.38802752e-09 -1.37545133e-09 -3.07887295e-25 -6.3559504e-09 3.08423226e-25 -3.20771265e-11)
(7.7354178e-09 -1.47996807e-09 -8.80076743e-26 -7.69224162e-09 1.88987614e-25 -4.3176174e-11)
(1.02766571e-08 -1.79439909e-09 -4.08280288e-25 -1.02079799e-08 5.90416031e-25 -6.86771879e-11)
(1.50480622e-08 -2.80757491e-09 -2.70593702e-25 -1.49350318e-08 3.22315735e-25 -1.13030307e-10)
(2.29559086e-08 -5.36751259e-09 2.63563084e-25 -2.27719906e-08 -3.28679537e-25 -1.83917972e-10)
(3.71989339e-08 -1.21721143e-08 -8.96075956e-26 -3.68778744e-08 1.22291157e-25 -3.21059436e-10)
(6.09607114e-08 -3.02582911e-08 -4.80952375e-25 -6.04246705e-08 7.67100111e-25 -5.36040947e-10)
(8.53238514e-08 -7.07360155e-08 3.55510578e-26 -8.45869464e-08 -7.50106769e-26 -7.36904964e-10)
(5.54397792e-08 -8.88472349e-08 3.6189094e-25 -5.51364657e-08 2.31775831e-26 -3.03313562e-10)
(1.16165475e-08 -4.15280038e-08 -1.42794436e-28 -1.15752764e-08 9.0363325e-28 -4.12710833e-11)
(6.48130935e-10 -7.92973145e-09 1.69077402e-28 -6.57431715e-10 -4.20800669e-27 9.30078003e-12)
(2.6122537e-11 -1.54023636e-09 4.48943255e-32 -2.49245091e-11 -8.63239955e-31 -1.19802792e-12)
(7.29624073e-10 -4.4568403e-07 2.05808774e-32 -9.42981325e-10 -2.03543839e-29 2.13357252e-10)
(-1.55374103e-08 -4.49430926e-07 -1.93902359e-25 1.60568049e-08 -2.04789278e-25 -5.19394644e-10)
(-3.02821685e-08 -1.85787056e-07 -5.66495217e-25 2.98310348e-08 -5.23623429e-24 4.51133673e-10)
(-6.71741552e-10 -3.34244602e-09 1.65034683e-23 6.54208635e-10 6.74598352e-23 1.75329172e-11)
(3.98224059e-09 2.46796267e-09 3.12822702e-23 -4.02617856e-09 1.09115831e-22 4.39379681e-11)
(9.64847827e-09 4.66191795e-09 2.63323179e-24 -9.69270112e-09 3.97817469e-24 4.42228468e-11)
(5.77213498e-09 1.90824977e-09 -1.7853976e-25 -5.7994416e-09 -2.48644667e-25 2.73066168e-11)
(4.76757759e-09 1.0849653e-09 -2.93178483e-24 -4.78448028e-09 -3.72102178e-24 1.69026964e-11)
(4.05551511e-09 7.34878732e-10 -6.40658606e-23 -4.07046233e-09 -6.41358747e-23 1.49472249e-11)
(3.56549948e-09 6.15435275e-10 -5.95809593e-23 -3.57591001e-09 -5.99615863e-23 1.04105319e-11)
(3.20957369e-09 6.10509208e-10 3.26863753e-24 -3.2176382e-09 3.97127886e-24 8.06451431e-12)
(3.28320812e-09 6.89172545e-10 4.12478729e-29 -3.28937955e-09 7.77289029e-29 6.17143103e-12)
(3.71571119e-09 8.36153018e-10 1.92938303e-26 -3.72071461e-09 2.41808569e-26 5.00342419e-12)
(4.72847022e-09 1.10976255e-09 -8.96092019e-25 -4.73298996e-09 -1.23833468e-24 4.51973289e-12)
(6.66539715e-09 1.60446632e-09 -6.97024839e-25 -6.67028136e-09 -6.608654e-25 4.88420753e-12)
(9.94669562e-09 2.4407191e-09 4.13115317e-26 -9.95574042e-09 5.26490869e-26 9.04480646e-12)
(1.46423375e-08 3.72838e-09 -1.06221829e-24 -1.46574965e-08 -1.19977661e-24 1.51589988e-11)
(2.06017821e-08 5.76446816e-09 2.99636857e-24 -2.06279199e-08 3.71291901e-24 2.61377784e-11)
(2.75752455e-08 8.95395711e-09 -1.89511675e-24 -2.76148143e-08 -2.61344449e-24 3.95687888e-11)
(3.45568886e-08 1.3613713e-08 -2.08584461e-24 -3.46106199e-08 -3.06743969e-24 5.37313225e-11)
(4.02410144e-08 1.9896071e-08 2.89216402e-24 -4.02962605e-08 4.07027203e-24 5.52461063e-11)
(4.41035494e-08 2.81098222e-08 6.34305023e-25 -4.41547033e-08 1.87965267e-24 5.11538504e-11)
(4.59193963e-08 3.81883105e-08 3.91540111e-24 -4.59614935e-08 1.02936889e-23 4.20972243e-11)
(4.46513737e-08 4.913925e-08 4.26239958e-26 -4.46734682e-08 1.22152678e-25 2.20944378e-11)
(4.00836141e-08 6.02755709e-08 9.56113887e-25 -4.00814501e-08 4.86797516e-24 -2.16397974e-12)
(3.27067177e-08 7.21154664e-08 -4.75723746e-24 -3.2742322e-08 -3.15931303e-23 3.56043345e-11)
(2.44241482e-08 8.77521604e-08 -1.74745082e-22 -2.42666614e-08 -9.78923429e-22 -1.57486738e-10)
(1.87760585e-08 1.39025437e-07 -1.54291962e-22 -1.87432775e-08 -1.33092773e-21 -3.27809474e-11)
(1.84134442e-08 2.69786046e-07 -1.33043074e-24 -1.83086474e-08 -1.3571595e-23 -1.04796891e-10)
(2.23513579e-08 4.48676479e-07 6.05398121e-33 -2.19208597e-08 1.42758512e-31 -4.30498241e-10)
(2.30258552e-08 6.32775563e-07 9.64200724e-25 -2.25935447e-08 3.36973297e-23 -4.32310428e-10)
(2.30163508e-08 8.19630732e-07 -5.73585516e-22 -2.24096093e-08 -5.06746527e-21 -6.06741546e-10)
(2.18468197e-08 9.96236824e-07 -6.74506666e-22 -2.11512319e-08 -6.07090523e-21 -6.95587778e-10)
(2.00938396e-08 1.1580786e-06 -7.16321585e-25 -1.9295839e-08 -5.46723389e-23 -7.98000558e-10)
(1.78140224e-08 1.29999091e-06 2.75285514e-26 -1.6946359e-08 3.93813015e-27 -8.67663436e-10)
(1.51561168e-08 1.4188937e-06 3.15872062e-26 -1.42343535e-08 1.21173183e-26 -9.21763364e-10)
(1.22172126e-08 1.51227718e-06 -3.29191704e-26 -1.12667653e-08 -8.02112862e-27 -9.50447279e-10)
(9.13164954e-09 1.57891331e-06 -3.29693788e-25 -8.17409408e-09 -6.86333401e-23 -9.57555466e-10)
(6.02270993e-09 1.61856905e-06 1.04981553e-21 -5.0814707e-09 9.40881355e-21 -9.41239233e-10)
(2.99355683e-09 1.63196073e-06 1.04237461e-21 -2.08807163e-09 1.00264781e-20 -9.05485204e-10)
(1.32742584e-10 1.62051739e-06 1.08097525e-25 7.20604446e-10 6.80380656e-23 -8.5334703e-10)
(-2.47995932e-09 1.58652972e-06 -1.81115393e-26 3.26724713e-09 2.71829621e-26 -7.87287813e-10)
(-4.7854804e-09 1.53221717e-06 -2.42552453e-29 5.49466733e-09 1.16664195e-25 -7.09186927e-10)
(-6.74675535e-09 1.46089371e-06 1.72502964e-26 7.37022374e-09 -1.17615637e-25 -6.23468391e-10)
(-8.34328741e-09 1.37588118e-06 1.59937691e-26 8.87711269e-09 -3.40179293e-26 -5.33825278e-10)
(-9.57063054e-09 1.28040362e-06 -1.46258228e-25 1.00141417e-08 6.01010741e-23 -4.43511175e-10)
(-1.04385847e-08 1.17760556e-06 -7.79862326e-22 1.07939918e-08 -1.04290601e-20 -3.55407123e-10)
(-1.09681611e-08 1.07045628e-06 -6.96551234e-22 1.12401215e-08 -1.02674e-20 -2.71960396e-10)
(-1.1188705e-08 9.61677831e-07 1.59392833e-25 1.13838346e-08 -4.70789318e-23 -1.95129555e-10)
(-1.11350938e-08 8.53695323e-07 -3.22149189e-28 1.12614972e-08 4.96853763e-26 -1.2640342e-10)
(-1.08451843e-08 7.48608708e-07 4.77785485e-27 1.09119531e-08 -4.61794714e-26 -6.67687952e-11)
(-1.03581235e-08 6.48179987e-07 -1.47994136e-25 1.03748817e-08 3.17010731e-23 -1.67582715e-11)
(-9.71311088e-09 5.5383082e-07 -3.26696948e-22 9.68960751e-09 -7.26776829e-21 2.35033638e-11)
(-8.9483432e-09 4.6664911e-07 -2.65906243e-22 8.89406976e-09 -6.72603423e-21 5.42734391e-11)
(-8.10039759e-09 3.87402231e-07 1.12378311e-25 8.02427904e-09 -2.06887714e-23 7.61185529e-11)
(-7.20389998e-09 3.16553526e-07 -6.54893987e-29 7.11401237e-09 5.44914778e-28 8.98876148e-11)
(-6.29128985e-09 2.54281202e-07 -5.75752649e-29 6.19467212e-09 4.60056184e-28 9.66177287e-11)
(-5.39235261e-09 2.00500514e-07 -3.60794711e-28 5.29484133e-09 -2.27216286e-26 9.751128e-11)
(-4.53331407e-09 1.54891672e-07 5.81074839e-30 4.43950431e-09 7.79941657e-27 9.38097623e-11)
(-3.73506525e-09 1.16939434e-07 -6.45644613e-29 3.64836421e-09 -2.26715183e-27 8.67010419e-11)
(-3.01181712e-09 8.59872075e-08 6.84075474e-29 2.93450575e-09 9.58515548e-29 7.73113691e-11)
(-2.37089383e-09 6.1294826e-08 -1.13268341e-28 2.3043781e-09 2.90158598e-27 6.6515731e-11)
(-1.81433298e-09 4.20924407e-08 5.8155846e-29 1.75914726e-09 -9.09806985e-27 5.51857187e-11)
(-1.34164623e-09 2.76091184e-08 1.05530505e-28 1.29771184e-09 1.01371886e-28 4.39343921e-11)
(-9.5084994e-10 1.70878653e-08 -1.05893438e-28 9.17457837e-10 3.68640282e-27 3.33921022e-11)
(-6.38281731e-10 9.79635807e-09 6.30061248e-29 6.14352257e-10 -1.86426058e-27 2.39294743e-11)
(-3.9790908e-10 5.04675177e-09 -1.90632084e-28 3.82027749e-10 4.6504191e-27 1.58813315e-11)
(-2.22258819e-10 2.21277156e-09 1.04881493e-28 2.12843306e-10 -2.0037136e-27 9.41551253e-12)
(-1.0319653e-10 7.37977662e-10 -7.26790658e-29 9.85670147e-11 9.95021488e-28 4.62951574e-12)
(-3.25916006e-11 1.38703866e-10 -5.00995764e-31 3.10457542e-11 4.07247848e-30 1.54584635e-12)
(-2.48211557e-12 3.10046699e-12 -1.13463214e-29 2.35781747e-12 2.90555468e-29 1.24298108e-13)
(-4.94711554e-12 -9.38909956e-12 7.52810467e-27 4.68571494e-12 2.64933851e-25 2.61400592e-13)
(-3.22599814e-11 -1.68297427e-10 4.99353517e-24 3.04590666e-11 4.92426379e-23 1.80091481e-12)
(-7.72886944e-11 -6.75313441e-10 1.50687897e-23 7.27241228e-11 2.4263174e-22 4.56457158e-12)
(-1.3376684e-10 -1.67079365e-09 9.48688456e-24 1.25399829e-10 2.19029651e-22 8.36701064e-12)
(-1.96187044e-10 -3.24097533e-09 -5.60354164e-26 1.8316086e-10 -3.25868168e-24 1.30261841e-11)
(-2.59448147e-10 -5.42309033e-09 3.44269411e-28 2.4110264e-10 1.37301992e-26 1.83455067e-11)
(-3.18518136e-10 -8.20697743e-09 9.68359952e-29 2.94388463e-10 2.875528e-27 2.41296737e-11)
(-3.68284833e-10 -1.15356454e-08 8.91974934e-26 3.38138329e-10 7.46841639e-24 3.0146504e-11)
(-4.03210456e-10 -1.53027743e-08 1.03371241e-23 3.67031479e-10 1.04161559e-21 3.61789771e-11)
(-4.17023177e-10 -1.93488012e-08 7.87042877e-24 3.751002e-10 1.19604197e-21 4.1922977e-11)
(-4.02723979e-10 -2.34514566e-08 -7.8534436e-26 3.55575786e-10 -1.19055025e-23 4.71481925e-11)
(-3.52729492e-10 -2.73256453e-08 -2.46356831e-28 3.01356718e-10 -3.33749684e-26 5.13727739e-11)
(-2.6013566e-10 -3.06103304e-08 2.39089503e-28 2.05617656e-10 -4.04982976e-26 5.45180044e-11)
(-1.20560109e-10 -3.29026778e-08 -2.54580357e-28 6.48365161e-11 8.13338065e-26 5.57235927e-11)
(6.16003942e-11 -3.37512943e-08 -4.83510275e-28 -1.17385954e-10 -4.02921333e-26 5.57855598e-11)
(2.77233229e-10 -3.28003711e-08 2.97213376e-30 -3.28906987e-10 1.39276025e-25 5.16737581e-11)
(4.97491561e-10 -2.97494952e-08 7.09001475e-28 -5.46336853e-10 -9.42897974e-26 4.8845292e-11)
(6.92665197e-10 -2.48164264e-08 1.13224425e-27 -7.30831682e-10 -8.55949429e-26 3.81664849e-11)
(7.87967208e-10 -1.81820605e-08 -1.80567542e-27 -8.23209021e-10 9.69002119e-26 3.52418125e-11)
(7.63072713e-10 -1.12880276e-08 3.55324816e-28 -7.81872969e-10 -1.85214975e-26 1.88002566e-11)
(6.17991552e-10 -4.87224889e-09 1.1888361e-28 -6.26459233e-10 -6.87461218e-28 8.46768099e-12)
(2.40987534e-10 -8.99243251e-10 2.4298195e-26 -2.47013705e-10 -1.8867567e-25 6.02617092e-12)
(9.26085564e-11 -2.99208475e-10 1.13642408e-25 -9.06494082e-11 -7.40286459e-25 -1.95914821e-12)
(1.55933685e-10 -4.15730291e-10 1.10938628e-25 -1.54620836e-10 -6.08520459e-25 -1.31284893e-12)
(4.10364476e-10 -7.78497732e-10 -3.18263479e-25 -4.02442359e-10 1.26774197e-24 -7.92211763e-12)
(1.23387426e-09 -1.68392751e-09 9.32084143e-25 -1.21749096e-09 -2.86382006e-24 -1.63832989e-11)
(3.24108248e-09 -3.2799972e-09 1.8353114e-24 -3.20831016e-09 -4.40912417e-24 -3.27723166e-11)
(7.56010644e-09 -5.88476574e-09 -3.30678375e-24 -7.50898529e-09 6.71545576e-24 -5.11211453e-11)
(1.71233452e-08 -1.05423403e-08 5.81845304e-24 -1.70482623e-08 -1.03799746e-23 -7.5082863e-11)
(3.75287525e-08 -1.88357376e-08 -9.59800176e-24 -3.74635592e-08 1.50823815e-23 -6.51932458e-11)
(7.79549095e-08 -3.28224224e-08 -1.32712645e-23 -7.79725052e-08 2.10552195e-23 1.75956381e-11)
(1.49579669e-07 -5.44012018e-08 2.5759543e-23 -1.49875271e-07 -4.06421393e-23 2.95602287e-10)
(2.61184566e-07 -8.48397132e-08 -4.06121809e-23 -2.61988426e-07 5.61385786e-23 8.03859905e-10)
(4.01187379e-07 -1.20876811e-07 3.16102568e-23 -4.02780375e-07 -4.27619087e-23 1.5929961e-09)
(5.42674308e-07 -1.53466602e-07 4.09251837e-23 -5.44933257e-07 -4.76323837e-23 2.25894899e-09)
(6.75051687e-07 -1.78101481e-07 4.66126652e-23 -6.7797078e-07 -5.25247315e-23 2.919093e-09)
(8.01577859e-07 -1.94818239e-07 5.00986195e-23 -8.05261912e-07 -5.43587583e-23 3.68405327e-09)
(9.34704139e-07 -2.05913506e-07 9.68035471e-23 -9.3933661e-07 -1.31808005e-22 4.63247117e-09)
(1.10244239e-06 -2.16646674e-07 -4.31546834e-23 -1.10856896e-06 3.96810931e-23 6.12657344e-09)
(1.39791967e-06 -2.51127958e-07 -1.42436971e-23 -1.40664408e-06 -3.17370452e-23 8.72441004e-09)
(1.9376465e-06 -3.68192746e-07 3.42471178e-23 -1.95176467e-06 -4.18134844e-23 1.41181681e-08)
(2.82373104e-06 -6.6770102e-07 -3.8095279e-23 -2.8461989e-06 4.86963015e-23 2.24678569e-08)
(4.33902902e-06 -1.43025483e-06 -4.23055006e-23 -4.3747223e-06 -5.74783969e-23 3.56932798e-08)
(6.75461179e-06 -3.35918878e-06 -3.60067038e-23 -6.81206106e-06 -1.57499097e-22 5.74492651e-08)
(9.38271554e-06 -7.67924586e-06 1.52236007e-22 -9.45331272e-06 1.01516355e-22 7.05971805e-08)
(7.30774985e-06 -1.12232118e-05 -5.08938606e-23 -7.35682127e-06 -7.86876449e-24 4.90714219e-08)
(2.4334421e-06 -7.71464073e-06 5.16539063e-26 -2.42774249e-06 -2.47213511e-25 -5.69960992e-09)
(3.05234846e-07 -2.50443279e-06 -1.58319652e-25 -3.03048895e-07 2.59739497e-24 -2.18595076e-09)
(3.12898355e-08 -7.16762639e-07 5.13982963e-30 -2.95523111e-08 -2.23600194e-28 -1.73752438e-09)
(2.39378997e-07 -1.94122766e-05 -4.6726195e-28 -2.33562871e-07 -8.90962422e-28 -5.81612546e-09)
(-3.80213218e-07 -1.60386501e-05 1.12734793e-23 4.09488126e-07 -3.01456753e-25 -2.92749077e-08)
(-9.83488489e-07 -7.63159996e-06 1.61576404e-23 9.71422108e-07 1.42983662e-22 1.20663814e-08)
(-1.29837798e-07 -5.59201565e-07 -1.03166245e-22 1.31064702e-07 6.88692896e-21 -1.22690474e-09)
(1.81533804e-08 4.68891344e-09 6.40554924e-22 -1.82130369e-08 5.2050856e-22 5.96564492e-11)
(1.57370568e-07 7.53645039e-08 -6.22125969e-23 -1.57472717e-07 -8.86530342e-23 1.021491e-10)
(1.14987003e-07 4.09193009e-08 1.91592118e-25 -1.15247419e-07 2.65862103e-25 2.60416645e-10)
(9.76395166e-08 2.41768354e-08 -5.805003e-24 -9.77086436e-08 -7.42778419e-24 6.91270645e-11)
(8.56029549e-08 1.71644867e-08 1.77011935e-21 -8.57005461e-08 2.1606452e-21 9.75912055e-11)
(7.7657824e-08 1.49020729e-08 1.87491943e-21 -7.77008916e-08 2.27335168e-21 4.30675533e-11)
(7.28726344e-08 1.50537318e-08 -7.18974836e-24 -7.29237658e-08 -8.83444172e-24 5.11314274e-11)
(7.69576775e-08 1.69765571e-08 9.09352575e-27 -7.69937268e-08 1.02253632e-26 3.60492527e-11)
(8.96295603e-08 2.05778888e-08 -5.00561189e-25 -8.96574589e-08 -6.3065223e-25 2.78986153e-11)
(1.16201094e-07 2.70758474e-08 -1.47232178e-24 -1.16223622e-07 7.53226184e-25 2.25275549e-11)
(1.64421876e-07 3.85028208e-08 5.74976279e-23 -1.64435323e-07 7.43533301e-23 1.3446496e-11)
(2.41982996e-07 5.7311682e-08 -4.98711815e-26 -2.42033422e-07 -7.00980088e-26 5.04254499e-11)
(3.4890792e-07 8.61826391e-08 7.46020343e-23 -3.48961854e-07 9.52961346e-23 5.3934226e-11)
(4.81362574e-07 1.32022927e-07 2.36260292e-25 -4.81481046e-07 3.08899853e-25 1.18472202e-10)
(6.32981424e-07 2.03757092e-07 -6.42333667e-23 -6.33163855e-07 -8.81794783e-23 1.82431086e-10)
(7.85185744e-07 3.09713552e-07 7.90835723e-23 -7.85471943e-07 1.16249835e-22 2.86198988e-10)
(9.18938097e-07 4.57541826e-07 -8.96660976e-23 -9.19158231e-07 -1.44529055e-22 2.20134132e-10)
(1.02696982e-06 6.59661283e-07 3.15937388e-23 -1.02721174e-06 5.67493877e-24 2.41919139e-10)
(1.09950915e-06 9.20453017e-07 1.34523595e-22 -1.09978479e-06 2.40862902e-22 2.75634729e-10)
(1.11315255e-06 1.23092288e-06 1.13044283e-22 -1.11326419e-06 2.92222036e-22 1.11647465e-10)
(1.05547382e-06 1.5877692e-06 1.02948121e-22 -1.05533801e-06 3.60264739e-22 -1.3580755e-10)
(9.27018581e-07 2.01370565e-06 -3.99507118e-23 -9.28387984e-07 -1.79019656e-23 1.36940316e-09)
(8.05581411e-07 2.69519189e-06 5.86418853e-21 -8.00731442e-07 3.99009674e-20 -4.84996869e-09)
(6.95903863e-07 4.12456585e-06 4.33299898e-21 -6.95523095e-07 5.13090881e-20 -3.80768137e-10)
(7.03955736e-07 6.71508351e-06 -1.51150995e-27 -7.03176665e-07 -5.61573881e-27 -7.79070311e-10)
(7.78493974e-07 9.81358523e-06 8.85954268e-26 -7.71522946e-07 2.21169941e-24 -6.97102784e-09)
(7.51808838e-07 1.27028341e-05 -7.70798723e-26 -7.47196044e-07 -2.58688282e-24 -4.61279356e-09)
(7.08322067e-07 1.53090297e-05 3.41558948e-21 -7.01868656e-07 1.46224569e-19 -6.45341042e-09)
(6.39047626e-07 1.75254987e-05 2.96255201e-21 -6.32693962e-07 1.60816491e-19 -6.35366389e-09)
(5.59952859e-07 1.93255132e-05 1.72700023e-25 -5.53189486e-07 1.17737542e-23 -6.76337351e-09)
(4.72763546e-07 2.06877834e-05 -9.32663159e-26 -4.66037147e-07 -8.04522655e-24 -6.72639858e-09)
(3.81513673e-07 2.16134093e-05 -6.36212824e-27 -3.74849897e-07 -7.08253903e-25 -6.66377581e-09)
(2.88868948e-07 2.21138159e-05 5.03659251e-27 -2.8246771e-07 7.54197587e-25 -6.40123875e-09)
(1.98129818e-07 2.22141191e-05 1.38146221e-28 -1.92098951e-07 1.35506785e-26 -6.03086617e-09)
(1.11998778e-07 2.19485425e-05 -5.81348132e-22 -1.06472673e-07 -2.16912332e-19 -5.52610493e-09)
(3.25108536e-08 2.13582389e-05 -1.91045411e-22 -2.75413143e-08 -2.18204119e-19 -4.9695393e-09)
(-3.86440653e-08 2.04883245e-05 -4.45682724e-25 4.29817387e-08 -9.17506974e-26 -4.33767345e-09)
(-1.00050928e-07 1.93889376e-05 4.28687703e-25 1.03682564e-07 5.90170093e-25 -3.63163561e-09)
(-1.50911457e-07 1.80952091e-05 -8.83953432e-27 1.53823361e-07 2.1744072e-24 -2.91190422e-09)
(-1.91200077e-07 1.66766962e-05 2.49139643e-27 1.93418413e-07 -4.28995513e-25 -2.21833616e-09)
(-2.21157737e-07 1.5180563e-05 -2.99415059e-25 2.22728162e-07 -6.60555818e-24 -1.57042506e-09)
(-2.4133208e-07 1.3648925e-05 -5.13663379e-26 2.42317481e-07 6.67901679e-24 -9.85400819e-10)
(-2.52526206e-07 1.21191804e-05 -2.08415341e-21 2.53001315e-07 2.00416887e-19 -4.75108483e-10)
(-2.55718482e-07 1.06236013e-05 -2.26947734e-21 2.55764879e-07 1.88572156e-19 -4.63975169e-11)
(-2.51993779e-07 9.18917336e-06 -2.77323502e-26 2.51695248e-07 2.01988422e-24 2.98530704e-10)
(-2.42483021e-07 7.8376366e-06 0 2.41921989e-07 0 5.61031724e-10)
(-2.28314006e-07 6.58567896e-06 3.44222546e-27 2.27568117e-07 -1.97909436e-25 7.45889792e-10)
(-2.10580558e-07 5.44522177e-06 -2.69207025e-21 2.09720272e-07 1.38641491e-19 8.60285629e-10)
(-1.90321091e-07 4.42376504e-06 -5.26835059e-21 1.89408165e-07 2.43714783e-19 9.12926521e-10)
(-1.68501613e-07 3.52477747e-06 -2.51891205e-21 1.6758786e-07 1.04807137e-19 9.13753081e-10)
(-1.46006394e-07 2.74811069e-06 1.40907032e-26 1.45133391e-07 1.64951305e-25 8.73002849e-10)
(-1.23632205e-07 2.09042323e-06 9.89991514e-27 1.22831104e-07 -3.64855776e-25 8.01101247e-10)
(-1.02082061e-07 1.54561664e-06 -6.75117379e-28 1.0137427e-07 -3.37826329e-27 7.07790479e-10)
(-8.19536103e-08 1.10529823e-06 -1.45448985e-26 8.13512652e-08 1.54251203e-25 6.02345131e-10)
(-6.37208595e-08 7.59290333e-07 1.37926992e-27 6.32280806e-08 -3.31232456e-26 4.92778912e-10)
(-4.7710986e-08 4.96205638e-07 -1.19230875e-27 4.73253047e-08 2.46027725e-26 3.85681301e-10)
(-3.40980704e-08 3.04049968e-07 1.04552861e-27 3.38113628e-08 -1.84917385e-26 2.8670763e-10)
(-2.29218893e-08 1.70761473e-07 -8.53929256e-28 2.27225787e-08 1.29512694e-26 1.99310651e-10)
(-1.41297293e-08 8.46161229e-08 -3.563556e-27 1.40029854e-08 3.1665588e-26 1.26743872e-10)
(-7.61467527e-09 3.44502484e-08 2.0784711e-27 7.54448462e-09 -1.84782684e-26 7.01906497e-11)
(-3.22531793e-09 9.82296807e-09 1.40543983e-28 3.19475646e-09 3.02336808e-28 3.05614633e-11)
(-7.64691628e-10 1.17735914e-09 -9.99483906e-31 7.57269681e-10 -6.54184348e-29 7.42194759e-12)
(-2.30812492e-16 -1.08796782e-18 6.10880513e-31 2.28519722e-16 -7.73865195e-32 2.29276959e-18)
(-6.82242446e-10 -1.08949269e-09 -2.28105879e-22 6.75329754e-10 -7.20300268e-22 6.91269227e-12)
(-2.55933636e-09 -8.30871197e-09 -4.42300782e-22 2.53303166e-09 -2.84063548e-21 2.6304699e-11)