/*--------------------------------*- C++ -*----------------------------------*\
| =========                 |                                                 |
| \\      /  F ield         | OpenFOAM: The Open Source CFD Toolbox           |
|  \\    /   O peration     | Version:  2506                                  |
|   \\  /    A nd           | Website:  www.openfoam.com                      |
|    \\/     M anipulation  |                                                 |
\*---------------------------------------------------------------------------*/
FoamFile
{
    version     2.0;
    format      ascii;
    arch        "LSB;label=32;scalar=64";
    class       volSymmTensorField;
    location    "2644";
    object      Tij7;
}
// * * * * * * * * * * * * * * * * * * * * * * * * * * * * * * * * * * * * * //

dimensions      [0 0 0 0 0 0 0];

internalField   nonuniform List<symmTensor> 
15600
(
(-1.07397433e-12 2.82398971e-15 1.5184849e-34 1.07397433e-12 1.20820325e-32 1.35907429e-52)
(-1.53600384e-12 7.00831042e-14 3.41533555e-31 1.53600384e-12 6.43029157e-31 2.0587436e-49)
(-3.43235616e-13 7.39940647e-14 2.57769752e-32 3.43235616e-13 1.08868613e-31 3.45164869e-50)
(-1.39499221e-18 -1.02898418e-19 -2.12502935e-31 1.39499221e-18 -7.72134984e-32 -2.96711181e-44)
(-1.44418659e-14 1.81251414e-14 3.42360321e-28 1.44418659e-14 -1.6752744e-28 -6.26814707e-42)
(-1.20929709e-14 2.45863404e-14 -1.37999217e-30 1.20929709e-14 5.74756008e-31 -7.73069399e-47)
(-3.2021136e-15 9.98846255e-15 -3.76982312e-31 3.2021136e-15 3.00949601e-31 -2.20998376e-47)
(-1.68186684e-15 7.49507071e-15 -7.5519035e-30 1.68186684e-15 -1.67083422e-30 1.6595537e-45)
(-1.03427532e-15 5.83311094e-15 4.19710349e-29 1.03427532e-15 -2.79053202e-29 -4.18300128e-43)
(-7.92394072e-16 4.74495969e-15 5.1061118e-29 7.92394072e-16 -2.52287219e-29 -5.95725177e-43)
(-7.24901775e-16 3.93168056e-15 6.15895064e-30 7.24901775e-16 1.35734499e-30 2.47593719e-45)
(-8.09570589e-16 3.91116981e-15 9.47686412e-35 8.09570589e-16 -6.00040702e-35 -3.06141842e-54)
(-1.00637019e-15 4.45955045e-15 -3.8144096e-32 1.00637019e-15 -1.08596386e-32 1.12390896e-49)
(-1.44193011e-15 6.01105125e-15 -1.5055348e-30 1.44193011e-15 1.12893372e-30 -5.72176641e-46)
(-2.36337824e-15 9.44676145e-15 1.88737531e-30 2.36337824e-15 -1.32012959e-30 -5.41774316e-46)
(-4.2151031e-15 1.6381139e-14 -1.88971182e-32 4.2151031e-15 -3.04540472e-33 1.46560895e-51)
(-7.49925083e-15 2.81404636e-14 1.77782608e-30 7.49925083e-15 -5.87064729e-31 -9.41588117e-47)
(-1.32094774e-14 4.54909205e-14 1.84366347e-30 1.32094774e-14 -1.80224847e-30 -1.35612828e-46)
(-2.29348452e-14 6.88288879e-14 -7.72759413e-30 2.29348452e-14 3.61076732e-30 -9.33148745e-46)
(-3.78958987e-14 9.4923909e-14 -7.31036037e-30 3.78958987e-14 6.85938894e-30 -9.34462878e-46)
(-5.80552169e-14 1.17098403e-13 -6.10479525e-30 5.80552169e-14 2.66217015e-30 -3.25383977e-46)
(-8.37577403e-14 1.31827343e-13 6.53323402e-30 8.37577403e-14 -4.09752865e-30 -3.78245137e-46)
(-1.1468679e-13 1.38782983e-13 3.1149489e-29 1.1468679e-13 -1.26134484e-29 -6.23467357e-45)
(-1.45294295e-13 1.33223024e-13 7.0581025e-31 1.45294295e-13 1.04408624e-30 7.26625224e-48)
(-1.71239171e-13 1.14982018e-13 3.45380565e-29 1.71239171e-13 -1.04647496e-29 -6.31423762e-45)
(-1.96006764e-13 8.94268481e-14 -9.94075951e-29 1.96006764e-13 -2.10250385e-28 2.25477871e-43)
(-2.08832507e-13 5.53666775e-14 1.08320401e-27 2.08832507e-13 -2.7894989e-28 -5.6182229e-42)
(-3.72259111e-13 3.6923844e-14 1.56074589e-27 3.72259111e-13 4.43024018e-28 -5.59289592e-42)
(-1.13937774e-12 3.25210176e-14 -4.35510561e-29 1.13937774e-12 8.28709389e-28 5.98788645e-43)
(-2.66462374e-12 5.36861728e-14 2.94187307e-37 2.66462374e-12 -5.03410431e-36 9.45190103e-60)
(-4.66619459e-12 6.96186777e-14 1.64489331e-28 4.66619459e-12 -2.80606964e-27 1.67833845e-42)
(-7.15677349e-12 8.36602027e-14 1.73122818e-26 7.15677349e-12 -1.21668726e-28 -4.18776126e-41)
(-9.91202108e-12 9.29910447e-14 1.98987338e-26 9.91202108e-12 1.04411017e-26 -2.85531824e-41)
(-1.2809287e-11 9.84126998e-14 -3.72532376e-28 1.2809287e-11 6.19556319e-27 2.98287503e-42)
(-1.56870408e-11 9.97119735e-14 -2.4904084e-30 1.56870408e-11 1.58298521e-32 -3.95366727e-49)
(-1.8413929e-11 9.70372261e-14 -2.97413397e-30 1.8413929e-11 1.56730109e-32 -4.80368578e-49)
(-2.08601899e-11 9.0608917e-14 3.26526068e-30 2.08601899e-11 -1.3454981e-31 -5.10419103e-49)
(-2.29220966e-11 8.09772635e-14 -5.70434659e-28 2.29220966e-11 1.08825805e-26 5.15048126e-42)
(-2.45220976e-11 6.88983854e-14 -4.81561203e-26 2.45220976e-11 -1.36541512e-27 -9.44764115e-41)
(-2.56134872e-11 5.51385869e-14 -4.68903837e-26 2.56134872e-11 -2.58698694e-26 -5.95088113e-41)
(-2.61766047e-11 4.04751598e-14 6.16880891e-28 2.61766047e-11 -1.25677327e-26 6.01846623e-42)
(-2.62199372e-11 2.5660601e-14 6.39057838e-31 2.62199372e-11 4.10198185e-31 -9.13881074e-51)
(-2.57760646e-11 1.13973842e-14 1.76680446e-30 2.57760646e-11 -1.05051482e-31 -1.20682725e-49)
(-2.48964062e-11 -1.73150468e-15 -4.10834797e-30 2.48964062e-11 1.00277694e-31 -6.77543975e-49)
(-2.36465045e-11 -1.32807299e-14 -7.34202683e-31 2.36465045e-11 7.58135716e-32 -2.25506137e-50)
(-2.21006025e-11 -2.29546612e-14 5.33179604e-28 2.21006025e-11 -1.44506919e-26 9.4365752e-42)
(-2.03363513e-11 -3.06021703e-14 5.63794056e-26 2.03363513e-11 -2.39880849e-27 -1.55999906e-40)
(-1.84302814e-11 -3.61993765e-14 5.12340659e-26 1.84302814e-11 2.32792075e-26 -1.13274729e-40)
(-1.64541644e-11 -3.98277242e-14 -3.95010458e-28 1.64541644e-11 1.20306538e-26 8.7882164e-42)
(-1.44723109e-11 -4.16492915e-14 6.84579483e-31 1.44723109e-11 3.50154537e-32 -3.23070093e-50)
(-1.25398594e-11 -4.18803767e-14 -1.56490431e-30 1.25398594e-11 8.53523963e-32 -1.94637036e-49)
(-1.07018856e-11 -4.07711494e-14 2.34443581e-28 1.07018856e-11 -9.6391872e-27 8.67836199e-42)
(-8.99311617e-12 -3.85883573e-14 3.58820324e-26 8.99311617e-12 -3.61261223e-27 -1.41589787e-40)
(-7.43816586e-12 -3.55999705e-14 3.11803999e-26 7.43816586e-12 1.15876382e-26 -1.13117029e-40)
(-6.05217691e-12 -3.20638039e-14 -1.33401346e-28 6.05217691e-12 6.47421876e-27 6.92406854e-42)
(-4.84171588e-12 -2.82190201e-14 -6.08790694e-33 4.84171588e-12 1.65907888e-32 4.94372023e-53)
(-3.80583539e-12 -2.42800632e-14 -4.63441651e-33 3.80583539e-12 -7.63668747e-33 9.5611395e-54)
(-2.93727272e-12 -2.04306397e-14 1.15743723e-31 2.93727272e-12 1.16139794e-32 -4.52112684e-51)
(-2.22375249e-12 -1.68186783e-14 4.16145972e-32 2.22375249e-12 1.20231311e-33 -7.78408103e-52)
(-1.64944039e-12 -1.35489959e-14 9.24518747e-33 1.64944039e-12 -5.65803023e-33 -3.18879445e-53)
(-1.19656931e-12 -1.0680461e-14 -2.52706858e-32 1.19656931e-12 4.86018252e-33 -5.12084677e-52)
(-8.46918285e-13 -8.23100032e-15 4.73260264e-32 8.46918285e-13 -2.6002106e-33 -2.63353516e-51)
(-5.83062137e-13 -6.18776013e-15 4.03453897e-32 5.83062137e-13 -1.28927974e-33 -2.78666899e-51)
(-3.88980598e-13 -4.52434527e-15 -4.54442528e-32 3.88980598e-13 9.59604248e-34 -5.30351835e-51)
(-2.50310645e-13 -3.20604847e-15 2.69352431e-37 2.50310645e-13 -2.28192976e-33 2.07996148e-53)
(-1.54417069e-13 -2.19341984e-15 -1.65494814e-32 1.54417069e-13 1.50242031e-33 -1.75412632e-51)
(-9.05346321e-14 -1.44029782e-15 1.10972692e-32 9.05346321e-14 1.14185226e-33 -1.34995633e-51)
(-4.98294206e-14 -8.99894916e-16 1.99512592e-37 4.98294206e-14 -6.80687027e-34 9.29548492e-54)
(-2.52838629e-14 -5.27730206e-16 0 2.52838629e-14 0 0)
(-1.15080113e-14 -2.84410877e-16 0 1.15080113e-14 0 0)
(-4.49561709e-15 -1.36196872e-16 0 4.49561709e-15 0 0)
(-1.39210966e-15 -5.45982127e-17 -1.45243638e-31 1.39210966e-15 1.69461482e-29 2.06091952e-43)
(-2.88379733e-16 -1.61453325e-17 -2.5274648e-29 2.88379733e-16 8.93814034e-30 -1.84463207e-42)
(-2.46326405e-17 -2.4518731e-18 -8.18847544e-30 2.46326405e-17 -8.29525871e-31 -2.72203554e-42)
(-3.38211917e-20 -1.67776907e-20 -2.46585826e-32 3.38211917e-20 -2.69746899e-32 -1.28212886e-44)
(-2.65466893e-18 4.23948172e-19 3.11201352e-32 2.65466893e-18 1.55888581e-31 9.13992104e-45)
(-6.94963733e-17 4.68396913e-18 -2.30537566e-34 6.94963733e-17 -6.05976932e-36 -7.58071467e-52)
(-3.74987195e-16 1.57523752e-17 -3.78624471e-34 3.74987195e-16 1.51168289e-35 -3.82295373e-52)
(-1.14011659e-15 3.4210354e-17 -1.22788748e-30 1.14011659e-15 -1.56124695e-29 2.1328784e-43)
(-2.55531599e-15 5.84881392e-17 1.31752275e-28 2.55531599e-15 -3.30304889e-29 -6.44078597e-42)
(-4.71327271e-15 8.50469056e-17 2.27911752e-28 4.71327271e-15 3.86406049e-29 -1.06330652e-41)
(-7.54704852e-15 1.08537888e-16 4.35565772e-30 7.54704852e-15 6.43623207e-29 5.47332594e-43)
(-1.07892458e-14 1.22403873e-16 -1.07231342e-32 1.07892458e-14 1.15404223e-33 -1.05586544e-50)
(-1.39407251e-14 1.19710933e-16 -1.22317798e-32 1.39407251e-14 1.66519269e-34 -1.07320571e-50)
(-1.63395114e-14 9.5887858e-17 2.85241393e-32 1.63395114e-14 -1.53994167e-34 -4.97950229e-50)
(-1.72394194e-14 5.15447286e-17 7.69461107e-32 1.72394194e-14 -4.70761398e-33 -3.42276937e-49)
(-1.62060976e-14 -5.10770651e-18 -1.03970537e-31 1.62060976e-14 -1.7700691e-34 -6.67023732e-49)
(-1.30610349e-14 -5.97269741e-17 2.61809482e-32 1.30610349e-14 7.60754751e-33 -4.81872769e-50)
(-8.7007926e-15 -9.06929708e-17 1.89012692e-32 8.7007926e-15 -5.29464066e-33 -3.75946139e-50)
(-4.13490525e-15 -8.25443457e-17 -3.83834441e-32 4.13490525e-15 -7.93168295e-34 -3.56305156e-49)
(-1.20261716e-15 -4.47924191e-17 1.73980187e-32 1.20261716e-15 1.49605174e-33 -2.51096421e-49)
(-7.2215277e-17 -8.55056585e-18 -7.89434964e-34 7.2215277e-17 -1.45403153e-34 -8.59302965e-51)
(-4.74505905e-18 6.82097949e-19 1.57421227e-36 4.74505905e-18 6.83361941e-36 9.7691341e-54)
(-1.11850141e-16 -2.70637301e-17 3.65077693e-33 1.11850141e-16 -1.87464815e-32 3.13535885e-48)
(-4.6521819e-17 -2.18090769e-17 -1.05176325e-31 4.6521819e-17 -2.38062937e-32 -2.2632355e-46)
(-4.22163613e-18 -3.17585474e-18 2.69213131e-32 4.22163613e-18 8.06650341e-33 -1.4921415e-46)
(-1.06153967e-19 -6.41161843e-20 5.09495692e-33 1.06153967e-19 1.06531892e-33 -2.16595809e-46)
(-6.45331757e-17 -7.12907308e-17 3.06556611e-31 6.45331757e-17 7.2390237e-32 -9.61466217e-46)
(-7.88053683e-16 -1.15935139e-15 -1.78641582e-30 7.88053683e-16 -9.12887842e-31 -2.86979286e-45)
(-4.63551327e-15 -8.70141293e-15 6.81739043e-30 4.63551327e-15 3.97309288e-30 -6.31305591e-45)
(-1.93426745e-14 -4.46217396e-14 1.30975111e-29 1.93426745e-14 3.79413418e-30 -3.16015824e-45)
(-6.43442172e-14 -1.75654278e-13 -5.42775233e-29 6.43442172e-14 -3.26871182e-29 -2.12631631e-44)
(-1.76811277e-13 -5.49547362e-13 1.42956453e-28 1.76811277e-13 1.13185604e-28 -5.74087854e-44)
(-4.09943062e-13 -1.38845443e-12 -1.67133444e-29 4.09943062e-13 6.32123086e-30 9.31580178e-47)
(-7.69225193e-13 -2.7250083e-12 2.68540105e-28 7.69225193e-13 2.25863829e-28 -4.32551272e-44)
(-1.15390037e-12 -4.26199052e-12 -1.76665445e-28 1.15390037e-12 -1.02323945e-28 -9.13115059e-45)
(-1.49763389e-12 -5.85249438e-12 -2.04968895e-28 1.49763389e-12 -1.13523841e-28 -8.65825869e-45)
(-1.78521318e-12 -7.51728644e-12 -2.23896033e-28 1.78521318e-12 -1.17620786e-28 -7.71780889e-45)
(-2.03898782e-12 -9.44592337e-12 5.02372949e-28 2.03898782e-12 4.00387632e-28 -4.27027274e-44)
(-2.33468866e-12 -1.21687698e-11 3.39695438e-28 2.33468866e-12 9.01121618e-29 -6.48367878e-45)
(-3.10879377e-12 -1.77448017e-11 9.89938857e-28 3.10879377e-12 7.47843771e-28 -8.49859057e-44)
(-5.52801162e-12 -2.95178041e-11 6.34042456e-28 5.52801162e-12 5.32836907e-28 -2.28389087e-44)
(-1.22075064e-11 -5.20002154e-11 -7.00574701e-28 1.22075064e-11 -6.56525064e-28 -1.70218885e-44)
(-3.27912817e-11 -9.97802608e-11 2.68942091e-28 3.27912817e-11 3.22854148e-28 -1.47592296e-45)
(-9.80856099e-11 -1.96742096e-10 2.45000019e-27 9.80856099e-11 1.60475236e-27 -3.89669804e-44)
(-2.69985556e-10 -3.24258166e-10 -2.5731727e-28 2.69985556e-10 -1.94538295e-28 -2.25360371e-46)
(-3.33044277e-10 -2.07247786e-10 9.32896735e-29 3.33044277e-10 -1.34971344e-27 4.26338746e-45)
(-1.15809577e-10 -3.23376404e-11 4.82555614e-30 1.15809577e-10 -1.6398483e-29 2.32151645e-48)
(-1.25822757e-11 -1.03578219e-12 -6.65834565e-30 1.25822757e-11 -3.84410337e-31 -3.5213778e-48)
(-1.41238297e-12 -2.34048423e-14 -1.34067464e-33 1.41238297e-12 6.19283902e-32 2.7152881e-51)
(-2.70405423e-09 -5.07401589e-12 -1.23384332e-31 2.70405423e-09 4.76883592e-32 -4.78074225e-54)
(-2.73753677e-09 9.62220452e-11 -1.24630045e-27 2.73753677e-09 1.17058991e-27 -1.0417772e-46)
(-8.46395985e-10 1.36929814e-10 -4.49199906e-26 8.46395985e-10 -2.54485897e-25 7.65000945e-41)
(-3.93400106e-12 7.80310198e-13 8.1903155e-26 3.93400106e-12 -1.07074436e-26 -1.69766542e-39)
(-3.2782615e-12 5.31889979e-12 -1.43529288e-25 3.2782615e-12 4.6662836e-26 -3.37219397e-39)
(-8.19343892e-12 1.69963064e-11 -1.46745336e-26 8.19343892e-12 -7.77933741e-27 7.33692018e-42)
(-2.77515196e-12 8.41422435e-12 3.57819027e-28 2.77515196e-12 -2.61218587e-28 -2.21512858e-44)
(-1.46497575e-12 6.44883905e-12 1.04443239e-26 1.46497575e-12 2.89375955e-27 5.53974436e-42)
(-9.36438755e-13 5.17737136e-12 8.7234108e-26 9.36438755e-13 -7.48247493e-26 -2.5096162e-39)
(-7.50213482e-13 4.3526768e-12 6.88836946e-26 7.50213482e-13 -7.76872125e-26 -2.33833324e-39)
(-7.1892055e-13 3.78426291e-12 -9.65797884e-27 7.1892055e-13 -2.1830425e-27 6.46610803e-42)
(-8.18625597e-13 3.90358593e-12 -9.3592758e-32 8.18625597e-13 4.76160526e-32 -2.52119972e-51)
(-1.03614794e-12 4.60755217e-12 -6.33803583e-29 1.03614794e-12 -1.78975697e-29 2.9694552e-46)
(-1.4913693e-12 6.35745513e-12 1.75371211e-27 1.4913693e-12 -1.0928836e-27 -6.37288138e-43)
(-2.41883132e-12 1.00521764e-11 1.0603967e-27 2.41883132e-12 -9.69443089e-28 -1.9751469e-43)
(-4.20633809e-12 1.71499405e-11 -1.9308891e-28 4.20633809e-12 -5.93935328e-29 8.06157469e-46)
(-7.31267299e-12 2.87336732e-11 2.11995009e-27 7.31267299e-12 -2.38658011e-27 -3.2074348e-43)
(-1.26888126e-11 4.53776434e-11 -8.44348323e-27 1.26888126e-11 6.26614735e-27 -2.34584025e-42)
(-2.17958271e-11 6.71721443e-11 6.81171417e-27 2.17958271e-11 -4.03057193e-27 -8.71371838e-43)
(-3.59587218e-11 9.13481571e-11 7.37199753e-27 3.59587218e-11 -6.65734105e-27 -9.67768053e-43)
(-5.59139213e-11 1.13166937e-10 -1.05484678e-26 5.59139213e-11 9.7201976e-27 -1.5154226e-42)
(-8.30230646e-11 1.30336481e-10 -3.2633201e-27 8.30230646e-11 6.13935687e-27 -1.24677604e-43)
(-1.17775431e-10 1.41683558e-10 -3.32411786e-26 1.17775431e-10 9.58682354e-27 -6.17515203e-42)
(-1.56859166e-10 1.42568519e-10 -1.01896919e-27 1.56859166e-10 -1.48029878e-27 1.35976685e-44)
(-1.97873257e-10 1.31583344e-10 -1.68621234e-26 1.97873257e-10 8.43833816e-28 -1.06016145e-42)
(-2.43822388e-10 1.106416e-10 1.95948476e-25 2.43822388e-10 3.90559468e-25 6.24413867e-40)
(-3.1078831e-10 8.62231446e-11 3.57296046e-24 3.1078831e-10 -1.59018551e-25 -3.90070084e-38)
(-5.70158305e-10 7.6935421e-11 5.43673202e-24 5.70158305e-10 -1.57256876e-24 -5.0629447e-38)
(-1.38190656e-09 9.40495254e-11 1.93287233e-26 1.38190656e-09 -1.47690505e-24 1.56808883e-39)
(-2.72567686e-09 1.34475245e-10 -4.65175631e-34 2.72567686e-09 1.59145596e-32 9.23490417e-56)
(-4.31108622e-09 1.55401992e-10 -1.5376207e-25 4.31108622e-09 4.10504572e-24 3.88776111e-39)
(-6.08735115e-09 1.6868802e-10 3.76900566e-23 6.08735115e-09 5.6086e-25 -2.32936351e-37)
(-7.89644192e-09 1.7040708e-10 4.80249741e-23 7.89644192e-09 -1.22910786e-23 -2.76046998e-37)
(-9.65174688e-09 1.6414223e-10 3.87835163e-25 9.65174688e-09 -7.53458099e-24 5.85425224e-39)
(-1.12602253e-08 1.50543255e-10 -3.78411983e-29 1.12602253e-08 -3.78549506e-28 1.26307757e-47)
(-1.26540511e-08 1.31055806e-10 -1.04675207e-28 1.26540511e-08 7.38274116e-28 4.2076164e-47)
(-1.37765524e-08 1.06967247e-10 7.3689615e-29 1.37765524e-08 -4.9855949e-29 -2.17863927e-49)
(-1.45918891e-08 7.99674972e-11 5.96555094e-25 1.45918891e-08 -1.18308717e-23 9.56230532e-39)
(-1.50826256e-08 5.17371191e-11 -8.77067054e-23 1.50826256e-08 -2.51009228e-24 -5.09497817e-37)
(-1.52492856e-08 2.3741749e-11 -9.36843058e-23 1.52492856e-08 2.20035211e-23 -5.44221747e-37)
(-1.51069191e-08 -2.74010685e-12 -6.30530315e-25 1.51069191e-08 1.24269772e-23 1.01963234e-38)
(-1.46859793e-08 -2.65999917e-11 -2.51536449e-28 1.46859793e-08 -1.62419074e-28 -2.52203152e-48)
(-1.40195262e-08 -4.70308007e-11 -1.06715762e-27 1.40195262e-08 -3.17088946e-28 -7.42206684e-47)
(-1.31562453e-08 -6.35660348e-11 1.05932865e-27 1.31562453e-08 -1.01480545e-29 -8.52784443e-47)
(-1.21455146e-08 -7.60060619e-11 2.98734365e-28 1.21455146e-08 5.98958587e-28 2.20047685e-47)
(-1.10349757e-08 -8.43942813e-11 -5.64610772e-25 1.10349757e-08 1.30752075e-23 1.54730923e-38)
(-9.86982545e-09 -8.89779363e-11 8.73865834e-23 9.86982545e-09 6.22542299e-24 -7.70717748e-37)
(-8.69098611e-09 -9.01540202e-11 8.34451133e-23 8.69098611e-09 -1.61443986e-23 -7.67896525e-37)
(-7.5338573e-09 -8.84174964e-11 4.26489879e-25 7.5338573e-09 -1.00836746e-23 1.34838699e-38)
(-6.4276056e-09 -8.43137182e-11 -3.73049982e-28 6.4276056e-09 -1.68337498e-28 -1.7495929e-47)
(-5.39493179e-09 -7.83976132e-11 3.32296713e-28 5.39493179e-09 8.77195096e-29 -1.91942544e-47)
(-4.45219746e-09 -7.12050935e-11 -2.78918555e-25 4.45219746e-09 7.66506318e-24 1.31909605e-38)
(-3.60980669e-09 -6.32323628e-11 4.73302458e-23 3.60980669e-09 4.99964735e-24 -6.15757026e-37)
(-2.87278191e-09 -5.49206674e-11 4.14761963e-23 2.87278191e-09 -6.76666171e-24 -5.7893305e-37)
(-2.24146849e-09 -4.66478399e-11 1.6928732e-25 2.24146849e-09 -4.69694086e-24 9.84003929e-39)
(-1.71230292e-09 -3.87242615e-11 -3.0785243e-30 1.71230292e-09 1.13466771e-29 7.05412243e-50)
(-1.27861014e-09 -3.13917771e-11 -2.44049476e-30 1.27861014e-09 1.00929594e-29 7.59127425e-50)
(-9.3141097e-10 -2.48233021e-11 1.05607556e-28 9.3141097e-10 -2.23495821e-30 -1.19469027e-47)
(-6.60226673e-10 -1.91233459e-11 -3.31818208e-29 6.60226673e-10 -5.02006253e-30 -1.64272659e-48)
(-4.53877405e-10 -1.43286644e-11 8.80473722e-30 4.53877405e-10 -1.72293189e-31 -1.7035629e-49)
(-3.01233984e-10 -1.04157036e-11 -3.39404897e-31 3.01233984e-10 2.75192638e-31 -1.09437254e-52)
(-1.9181933e-10 -7.31552392e-12 -9.14680741e-30 1.9181933e-10 2.94821899e-30 -3.79572253e-49)
(-1.16216643e-10 -4.93316462e-12 2.51780353e-29 1.16216643e-10 -1.72163289e-30 -5.38787881e-48)
(-6.62321962e-11 -3.16581065e-12 -2.16163715e-31 6.62321962e-11 -1.01250249e-30 1.44239345e-50)
(-3.49343881e-11 -1.90978182e-12 -7.55867224e-30 3.49343881e-11 3.71431449e-31 -1.61788122e-48)
(-1.66377024e-11 -1.06370916e-12 3.16599039e-30 1.66377024e-11 2.02413343e-31 -6.0245669e-49)
(-6.87114288e-12 -5.30941251e-13 -6.33103258e-30 6.87114288e-12 -4.89206295e-31 -5.83337797e-48)
(-2.28878075e-12 -2.25023989e-13 2.07231194e-30 2.28878075e-12 2.03741622e-31 -1.87631638e-48)
(-5.29374901e-13 -7.23657112e-14 -7.13639694e-31 5.29374901e-13 -9.75547649e-32 -9.62043369e-49)
(-5.69988668e-14 -1.30755444e-14 -1.67301268e-33 5.69988668e-14 -3.83789237e-34 -4.91057383e-53)
(-3.59118984e-16 -2.80298395e-16 -3.63815493e-33 3.59118984e-16 -1.78121869e-33 -3.49188332e-50)
(-1.57123012e-15 8.06008784e-16 9.05844397e-29 1.57123012e-15 1.6412968e-28 1.71243112e-41)
(-7.37332515e-14 1.37390078e-14 2.21881268e-26 7.37332515e-14 2.09371597e-27 -6.16852109e-39)
(-4.70186085e-13 5.22231123e-14 1.68961015e-25 4.70186085e-13 -1.86367245e-26 -6.07159776e-38)
(-1.57341124e-12 1.22030554e-13 2.03710119e-25 1.57341124e-12 -7.65487594e-26 -2.40429113e-38)
(-3.80646013e-12 2.2276823e-13 -5.74377511e-27 3.80646013e-12 -5.92369077e-26 9.20499369e-40)
(-7.56172306e-12 3.48973205e-13 1.90548751e-29 7.56172306e-12 -4.48217976e-30 -4.63036925e-47)
(-1.3138277e-11 4.90590887e-13 4.5646736e-30 1.3138277e-11 -2.11190113e-30 -1.29942848e-48)
(-2.06863656e-11 6.33398796e-13 1.71528197e-26 2.06863656e-11 2.17345453e-25 2.27826117e-39)
(-3.01523706e-11 7.58836922e-13 2.05681126e-24 3.01523706e-11 2.51295923e-25 -1.37259053e-37)
(-4.12254006e-11 8.43866323e-13 2.54428926e-24 4.12254006e-11 -4.03751533e-25 -1.54026086e-37)
(-5.32741022e-11 8.61305546e-13 -3.13669168e-26 5.32741022e-11 -4.49869137e-25 3.78799226e-39)
(-6.53199143e-11 7.81772117e-13 -7.98395347e-29 6.53199143e-11 -5.62032105e-30 -9.69247358e-47)
(-7.59922952e-11 5.78132661e-13 -1.00483871e-28 7.59922952e-11 1.40568899e-29 -1.3054389e-46)
(-8.3671879e-11 2.35732849e-13 2.06953477e-28 8.3671879e-11 3.18224646e-29 -4.99327046e-46)
(-8.65598222e-11 -2.29517516e-13 -1.03352852e-28 8.65598222e-11 -3.10290885e-29 -1.12476501e-46)
(-8.33210177e-11 -7.69872689e-13 3.53942684e-28 8.33210177e-11 -1.36238373e-29 -1.5001021e-45)
(-7.31489074e-11 -1.28329754e-12 -2.32020269e-28 7.31489074e-11 1.01464431e-29 -7.33180417e-46)
(-5.74379769e-11 -1.64735203e-12 -1.98024278e-28 5.74379769e-11 -1.79513703e-29 -6.80092513e-46)
(-3.79360945e-11 -1.68082528e-12 2.01894545e-28 3.79360945e-11 2.66231794e-29 -1.06625399e-45)
(-2.00872684e-11 -1.3746307e-12 -3.29855282e-29 2.00872684e-11 -1.87683195e-30 -5.41587323e-47)
(-6.55362033e-12 -8.36950057e-13 -6.2065795e-31 6.55362033e-12 -5.07919564e-30 3.69458849e-48)
(-6.94748356e-13 -1.88512985e-13 -1.44670826e-28 6.94748356e-13 -3.3190141e-29 -3.00761965e-44)
(-1.62235465e-13 -4.9682652e-14 -3.96553236e-28 1.62235465e-13 -6.81003157e-29 -9.532646e-43)
(-2.52582402e-13 -9.43407402e-14 -3.60188402e-28 2.52582402e-13 -1.08326099e-28 -5.11251008e-43)
(-5.91077769e-13 -3.08563552e-13 9.28039467e-28 5.91077769e-13 3.84863715e-28 -1.44390589e-42)
(-1.70078913e-12 -1.23795569e-12 -3.03782724e-27 1.70078913e-12 -5.5509073e-28 -4.37188643e-42)
(-4.31051971e-12 -4.23784417e-12 -5.61657574e-27 4.31051971e-12 -2.94721545e-27 -6.53636297e-42)
(-9.86925208e-12 -1.26360735e-11 1.16328964e-26 9.86925208e-12 4.98243684e-27 -9.94010059e-42)
(-2.26535476e-11 -3.67142454e-11 -2.44638083e-26 2.26535476e-11 -8.96293512e-27 -1.49578164e-41)
(-5.17915175e-11 -1.0310097e-10 4.28544783e-26 5.17915175e-11 2.46201453e-26 -2.11297012e-41)
(-1.14104267e-10 -2.71033978e-10 7.5695477e-26 1.14104267e-10 4.28866493e-26 -2.54819218e-41)
(-2.33725963e-10 -6.43279852e-10 -1.77823483e-25 2.33725963e-10 -1.06680492e-25 -6.22007954e-41)
(-4.37531114e-10 -1.34904076e-09 3.08922769e-25 4.37531114e-10 1.83372899e-25 -8.94346402e-41)
(-7.1797983e-10 -2.38768969e-09 -2.38091805e-25 7.1797983e-10 -2.09679315e-25 -3.98187068e-41)
(-1.00651615e-09 -3.5665564e-09 -2.93074646e-25 1.00651615e-09 -2.94832624e-25 -4.48044579e-41)
(-1.25417765e-09 -4.76394279e-09 -3.7623894e-25 1.25417765e-09 -3.20806367e-25 -4.93847441e-41)
(-1.45031946e-09 -5.98103902e-09 -4.35581918e-25 1.45031946e-09 -3.34394484e-25 -4.89844614e-41)
(-1.61080685e-09 -7.33006237e-09 -1.08564092e-24 1.61080685e-09 -6.90335715e-25 -2.15146114e-40)
(-1.78819712e-09 -9.12482075e-09 2.85576e-25 1.78819712e-09 4.08437213e-25 -2.28563604e-41)
(-2.24279859e-09 -1.25236387e-08 -2.51722237e-25 2.24279859e-09 9.06373052e-26 2.76624232e-42)
(-3.6724388e-09 -1.9396939e-08 -3.52041956e-25 3.6724388e-09 -4.19759701e-25 -1.42169648e-41)
(-7.58291418e-09 -3.21959911e-08 5.31441246e-25 7.58291418e-09 4.56884452e-25 -1.4801076e-41)
(-1.89217921e-08 -5.7640005e-08 -7.7202067e-25 1.89217921e-08 5.82728696e-25 1.27729564e-41)
(-5.26216839e-08 -1.06260948e-07 -2.39432115e-24 5.26216839e-08 4.76186388e-25 -3.37334455e-42)
(-1.41109572e-07 -1.73060216e-07 1.90484795e-24 1.41109572e-07 -2.87476053e-24 5.11314836e-41)
(-2.1319859e-07 -1.39285703e-07 -1.62638333e-25 2.1319859e-07 9.66787192e-25 3.66104879e-42)
(-1.23642369e-07 -3.89550466e-08 -7.59713929e-27 1.23642369e-07 2.29604562e-26 4.26279903e-45)
(-2.71572515e-08 -3.29801515e-09 2.79530607e-26 2.71572515e-08 2.70148946e-27 -2.87547546e-44)
(-5.09899241e-09 -2.16413096e-10 -1.58704494e-30 5.09899241e-09 -6.73578783e-32 -4.9396262e-52)
(-4.14649134e-07 -5.05105455e-09 1.29502402e-29 4.14649134e-07 -5.04889785e-27 6.14712787e-47)
(-3.2187431e-07 7.92412618e-09 -3.80891976e-27 3.2187431e-07 -2.2543363e-25 1.57879306e-43)
(-1.19848741e-07 1.53502264e-08 4.30247147e-24 1.19848741e-07 3.15334562e-23 8.29621115e-39)
(-3.65851858e-09 8.53463853e-10 4.68863285e-23 3.65851858e-09 1.05831511e-23 -4.8081876e-37)
(-9.53018105e-12 3.69572339e-11 -7.98735308e-25 9.53018105e-12 1.6780259e-24 -5.37617652e-38)
(-3.36078366e-10 7.02001682e-10 7.87663741e-25 3.36078366e-10 3.53428265e-25 3.7031873e-40)
(-1.62034064e-10 4.55846244e-10 -2.08569771e-27 1.62034064e-10 -7.28028986e-28 3.27010259e-45)
(-8.95352561e-11 3.61721195e-10 2.64137635e-26 8.95352561e-11 -2.26281536e-26 -3.23364647e-42)
(-6.05265082e-11 3.02030668e-10 -7.67712825e-24 6.05265082e-11 6.14069208e-24 -3.13662572e-37)
(-5.07636179e-11 2.64613203e-10 -7.82969666e-24 5.07636179e-11 6.2869136e-24 -3.74072094e-37)
(-5.0214404e-11 2.43164932e-10 2.84483556e-26 5.0214404e-11 -2.53200552e-26 -5.81918129e-42)
(-5.77202972e-11 2.61717401e-10 -3.49865117e-29 5.77202972e-11 3.07876424e-29 -8.07154533e-48)
(-7.36740947e-11 3.20946647e-10 4.77613336e-27 7.36740947e-11 1.36635935e-27 2.44006269e-44)
(-1.05747543e-10 4.53879471e-10 -2.7637057e-27 1.05747543e-10 -5.51036968e-27 7.47161152e-44)
(-1.68852254e-10 7.21093653e-10 -3.28012922e-25 1.68852254e-10 2.50080735e-25 -2.29557541e-40)
(-2.8592665e-10 1.20737333e-09 3.56384651e-28 2.8592665e-10 -2.41127952e-28 -1.47580332e-46)
(-4.85841335e-10 1.96706661e-09 -5.31170928e-25 4.85841335e-10 4.29999278e-25 -2.30383078e-40)
(-8.29540315e-10 3.02492006e-09 -1.20540421e-27 8.29540315e-10 2.46164065e-27 -1.43623687e-45)
(-1.40690008e-09 4.37123409e-09 6.0662067e-25 1.40690008e-09 -4.53039411e-25 -1.2479677e-40)
(-2.311726e-09 5.86175548e-09 -8.69561889e-25 2.311726e-09 6.01474021e-25 -1.77393731e-40)
(-3.63811564e-09 7.30775485e-09 1.09205064e-24 3.63811564e-09 -8.32099405e-25 -2.26604989e-40)
(-5.54578278e-09 8.63476835e-09 -1.38298003e-25 5.54578278e-09 1.06654017e-25 -2.82688416e-42)
(-8.15202098e-09 9.73905784e-09 -2.0797385e-24 8.15202098e-09 1.39901867e-24 -4.71020736e-40)
(-1.14308191e-08 1.03376773e-08 -2.66035417e-24 1.14308191e-08 1.33228098e-24 -5.63683947e-40)
(-1.54255864e-08 1.025354e-08 -3.45645865e-24 1.54255864e-08 1.38792327e-24 -7.37297824e-40)
(-2.05627486e-08 9.47314685e-09 2.39721394e-25 2.05627486e-08 -1.73825905e-25 -2.63349203e-42)
(-2.98065556e-08 8.88223463e-09 -4.48822392e-22 2.98065556e-08 7.30336316e-23 -6.64471378e-36)
(-5.22721836e-08 8.81704016e-09 -6.56530366e-22 5.22721836e-08 8.58989265e-23 -8.23443855e-36)
(-1.00334914e-07 1.05124909e-08 -6.75636498e-29 1.00334914e-07 -2.92642812e-27 8.47905962e-47)
(-1.66653945e-07 1.31611653e-08 -3.75951026e-26 1.66653945e-07 2.96797052e-27 -8.48099782e-45)
(-2.35127528e-07 1.38731762e-08 4.7919306e-26 2.35127528e-07 -2.82737195e-27 -9.76601893e-45)
(-3.01590704e-07 1.38905084e-08 -2.88233178e-21 3.01590704e-07 1.32752944e-22 -2.7546726e-35)
(-3.61198978e-07 1.31052408e-08 -3.31598581e-21 3.61198978e-07 1.20312612e-22 -3.04423948e-35)
(-4.11512299e-07 1.18514774e-08 -2.50806945e-25 4.11512299e-07 7.2231932e-27 -1.52860859e-43)
(-4.50651963e-07 1.02251741e-08 1.75313993e-25 4.50651963e-07 -3.97782823e-27 -6.82011811e-44)
(-4.77745658e-07 8.3593802e-09 1.56602561e-26 4.77745658e-07 -2.74016169e-28 -5.13335115e-46)
(-4.92558404e-07 6.36291525e-09 -1.6803701e-26 4.92558404e-07 2.17071771e-28 -5.73260682e-46)
(-4.95546018e-07 4.35255415e-09 -2.75470127e-28 4.95546018e-07 5.85725777e-27 6.9015997e-47)
(-4.87667967e-07 2.42707524e-09 4.8207299e-21 4.87667967e-07 -2.400842e-23 -4.76542204e-35)
(-4.70263458e-07 6.61111159e-10 4.80554619e-21 4.70263458e-07 -6.74532736e-24 -4.91070991e-35)
(-4.44903839e-07 -8.86251912e-10 2.00107702e-27 4.44903839e-07 -1.0044023e-26 2.17929739e-46)
(-4.13364316e-07 -2.17175787e-09 -1.25939272e-26 4.13364316e-07 3.62366625e-27 -3.50762043e-46)
(-3.77006649e-07 -3.17451576e-09 -4.53330834e-26 3.77006649e-07 4.7308948e-27 -5.38173925e-45)
(-3.38127612e-07 -3.89915755e-09 8.66926691e-27 3.38127612e-07 5.48409069e-27 -1.36549908e-46)
(-2.98300591e-07 -4.36121591e-09 1.29856489e-25 2.98300591e-07 -4.76472111e-27 -5.63804393e-44)
(-2.58863683e-07 -4.58641637e-09 -1.26620335e-25 2.58863683e-07 -1.10797933e-26 -6.1633411e-44)
(-2.20922718e-07 -4.60767604e-09 -3.65403223e-21 2.20922718e-07 -7.62051441e-23 -6.04372045e-35)
(-1.85342288e-07 -4.46174012e-09 -3.29038769e-21 1.85342288e-07 -7.92058583e-23 -5.84143601e-35)
(-1.52750805e-07 -4.18638877e-09 -3.35811965e-26 1.52750805e-07 -9.20348302e-28 -7.38259127e-45)
(-1.23556184e-07 -3.81819404e-09 0 1.23556184e-07 0 0)
(-9.79688186e-08 -3.39086018e-09 2.94447669e-27 9.79688186e-08 1.01913128e-28 -8.84969634e-47)
(-7.60286926e-08 -2.93421682e-09 -1.93599859e-21 7.60286926e-08 -7.47159128e-23 -4.92983688e-35)
(-5.76345276e-08 -2.47363005e-09 -3.17553973e-21 5.76345276e-08 -1.36293419e-22 -1.74965477e-34)
(-4.25734934e-08 -2.02970303e-09 -1.26601226e-21 4.25734934e-08 -6.03580188e-23 -3.76475342e-35)
(-3.05501697e-08 -1.61826994e-09 -1.85295615e-27 3.05501697e-08 6.78098288e-28 -9.271853e-47)
(-2.12138143e-08 -1.25056658e-09 3.69640142e-27 2.12138143e-08 4.34540752e-28 -6.418749e-46)
(-1.41834404e-08 -9.33514392e-10 2.5094257e-29 1.41834404e-08 1.80344231e-28 2.19718178e-48)
(-9.07038042e-09 -6.700623e-10 -1.26392e-27 9.07038042e-09 -1.62925349e-28 -1.75591548e-46)
(-5.49799632e-09 -4.59616549e-10 2.43610519e-28 5.49799632e-09 -6.94001206e-29 -9.33871215e-48)
(-3.11806145e-09 -2.98594948e-10 -1.54592497e-28 3.11806145e-09 -1.48042428e-29 -7.66464694e-48)
(-1.62282619e-09 -1.81228776e-10 9.86896711e-29 1.62282619e-09 1.10211484e-29 -6.00166009e-48)
(-7.51988633e-10 -1.00503118e-10 -5.85899834e-29 7.51988633e-10 1.56637997e-29 -3.84379332e-48)
(-2.94881957e-10 -4.90203856e-11 -1.10134517e-28 2.94881957e-10 -2.1303128e-29 -4.11041933e-47)
(-8.89883397e-11 -1.95787916e-11 4.87535315e-29 8.89883397e-11 9.89061004e-31 -2.56940026e-47)
(-1.67030817e-11 -5.45838214e-12 -5.57075734e-31 1.67030817e-11 1.43041009e-31 -1.28628124e-50)
(-9.87489175e-13 -6.38259079e-13 1.14660403e-31 9.87489175e-13 -1.84399383e-31 3.44193023e-50)
(-5.08510027e-25 1.07344644e-22 -7.39882865e-38 5.08510027e-25 -5.62676342e-37 7.89372345e-52)
(-8.89028016e-13 5.53890691e-13 -5.88524845e-25 8.89028016e-13 3.66668422e-25 -3.89595701e-37)