/*--------------------------------*- C++ -*----------------------------------*\
| =========                 |                                                 |
| \\      /  F ield         | OpenFOAM: The Open Source CFD Toolbox           |
|  \\    /   O peration     | Version:  2506                                  |
|   \\  /    A nd           | Website:  www.openfoam.com                      |
|    \\/     M anipulation  |                                                 |
\*---------------------------------------------------------------------------*/
FoamFile
{
    version     2.0;
    format      ascii;
    arch        "LSB;label=32;scalar=64";
    class       volSymmTensorField;
    location    "2644";
    object      Tij8;
}
// * * * * * * * * * * * * * * * * * * * * * * * * * * * * * * * * * * * * * //

dimensions      [0 0 0 0 0 0 0];

internalField   nonuniform List<symmTensor> 
15600
(
(1.46194481e-18 -3.84414876e-21 -2.43819328e-35 -1.46194481e-18 -5.98095229e-33 1.3225859e-52)
(5.98000926e-18 -2.72849325e-19 1.5180663e-34 -5.98000926e-18 -6.46929036e-35 -1.16249851e-52)
(3.87865232e-18 -8.36152301e-19 -6.30550383e-33 -3.87865232e-18 -5.49057919e-32 3.50563509e-50)
(4.89415378e-20 3.61006088e-21 -2.67619751e-33 -4.89415378e-20 4.91528754e-32 4.55645039e-45)
(3.64054896e-18 -4.56904011e-18 1.30374981e-30 -3.64054896e-18 1.84915813e-30 -1.25967601e-44)
(1.63257556e-18 -3.31920573e-18 1.24152162e-32 -1.63257556e-18 2.11281432e-32 -3.33255229e-49)
(1.82251837e-19 -5.68504391e-19 -6.98756557e-33 -1.82251837e-19 -8.60543067e-33 -4.29751809e-51)
(1.36008381e-19 -6.06107694e-19 1.90717333e-30 -1.36008381e-19 2.27904373e-30 4.64404896e-45)
(6.51846194e-20 -3.6762853e-19 1.93421611e-30 -6.51846194e-20 2.20987587e-30 1.61069659e-44)
(4.79601898e-20 -2.8719191e-19 -1.46836699e-30 -4.79601898e-20 -1.66367301e-30 -3.49014275e-45)
(2.48646442e-20 -1.34859427e-19 -1.62083778e-30 -2.48646442e-20 -1.88981252e-30 6.25444394e-45)
(1.68912161e-20 -8.16042667e-20 -1.98657334e-36 -1.68912161e-20 -2.35932201e-36 1.25237151e-57)
(1.07934272e-20 -4.78291522e-20 1.01853156e-32 -1.07934272e-20 1.25260774e-32 2.2888472e-49)
(7.31184144e-21 -3.0481265e-20 1.39238545e-32 -7.31184144e-21 1.71597875e-32 4.89961898e-49)
(7.1554674e-21 -2.86014284e-20 -1.67154279e-32 -7.1554674e-21 -2.09109033e-32 6.83010946e-50)
(1.19516132e-20 -4.64475084e-20 4.32651949e-33 -1.19516132e-20 5.53141751e-33 1.1741505e-50)
(3.83033993e-20 -1.43731079e-19 -1.29119296e-31 -3.83033993e-20 -1.65667367e-31 3.36715791e-48)
(8.94910993e-20 -3.08190276e-19 4.27767866e-33 -8.94910993e-20 6.98286643e-33 -2.14403391e-50)
(1.94278556e-19 -5.83041956e-19 4.71204993e-31 -1.94278556e-19 6.3723815e-31 3.64767061e-47)
(3.28206644e-19 -8.22111592e-19 -4.46189555e-31 -3.28206644e-19 -6.60044058e-31 2.49703194e-47)
(4.23452314e-19 -8.54110835e-19 2.16903488e-32 -4.23452314e-19 2.37581694e-32 1.89417846e-49)
(2.75751725e-19 -4.3400905e-19 3.61588086e-31 -2.75751725e-19 6.69129371e-31 2.55316073e-47)
(7.37853015e-20 -8.92879142e-20 -4.42371583e-31 -7.37853015e-20 -8.22560905e-31 3.74051208e-47)
(1.26655264e-21 -1.16132552e-21 -2.25319391e-31 -1.26655262e-21 -5.78139962e-31 7.68840721e-48)
(1.6825878e-19 -1.12980774e-19 -7.35578748e-32 -1.6825878e-19 -1.26575347e-32 2.31826209e-47)
(1.40315162e-18 -6.40179063e-19 2.37234899e-29 -1.40315162e-18 1.12194907e-28 2.39061983e-43)
(7.61137595e-20 -2.01796456e-20 1.32376302e-29 -7.61137595e-20 1.22356655e-28 4.223061e-43)
(6.38691292e-18 -6.33508675e-19 -9.01230905e-30 -6.38691292e-18 -1.68572274e-28 1.38516228e-43)
(1.65919839e-17 -4.73581486e-19 -1.98536828e-30 -1.65919839e-17 -4.14984242e-28 6.02185065e-43)
(1.39072864e-17 -2.80200528e-19 1.11016958e-38 -1.39072864e-17 2.51608005e-36 9.49959721e-60)
(2.43897237e-17 -3.63889735e-19 2.52177929e-30 -2.43897237e-17 1.40253373e-27 1.68614931e-42)
(2.79953255e-17 -3.27255656e-19 1.63585617e-30 -2.79953255e-17 2.04572514e-27 4.71518382e-42)
(3.45279834e-17 -3.23929219e-19 -4.38031107e-31 -3.45279834e-17 -2.4263511e-27 -4.50221547e-43)
(3.92407355e-17 -3.01483347e-19 1.52182541e-30 -3.92407355e-17 -3.09707563e-27 2.99565342e-42)
(4.38465177e-17 -2.78702839e-19 2.1805958e-35 -4.38465177e-17 -3.22169835e-33 1.11109117e-53)
(4.7078336e-17 -2.48092144e-19 2.32826486e-35 -4.7078336e-17 -3.07780742e-33 1.04078187e-53)
(4.91415749e-17 -2.13452749e-19 -1.21351492e-34 -4.91415749e-17 6.28448977e-32 8.26120523e-52)
(4.9721746e-17 -1.75652821e-19 1.02241944e-29 -4.9721746e-17 -5.44072977e-27 5.16615477e-42)
(4.90222674e-17 -1.37735161e-19 1.28591949e-29 -4.90222674e-17 -6.00503402e-27 1.25491379e-41)
(4.7081936e-17 -1.0135408e-19 -1.32193458e-29 -4.7081936e-17 5.89886256e-27 -1.14302169e-42)
(4.40926305e-17 -6.81775304e-20 -1.5328278e-29 -4.40926305e-17 6.28369096e-27 6.03420024e-42)
(4.02051116e-17 -3.9347437e-20 4.81456768e-34 -4.02051116e-17 -1.58356011e-31 2.66501117e-51)
(3.57414304e-17 -1.58037629e-20 -1.14510925e-34 -3.57414304e-17 5.51800439e-33 -1.96666734e-53)
(3.09845798e-17 2.15492727e-21 1.21955582e-34 -3.09845798e-17 -4.67684021e-33 8.64778707e-54)
(2.61779485e-17 1.47024801e-20 1.44693931e-34 -2.61779484e-17 -8.09044014e-32 1.70174187e-51)
(2.15331007e-17 2.23652287e-20 -2.1406765e-29 -2.15331007e-17 7.22561956e-27 9.44966312e-42)
(1.72183481e-17 2.59101946e-20 -2.16700402e-29 -1.72183481e-17 7.02132607e-27 1.77976554e-41)
(1.33535867e-17 2.62281135e-20 1.92435176e-29 -1.33535867e-17 -6.33857009e-27 1.38857085e-42)
(1.00116468e-17 2.42334463e-20 1.88963636e-29 -1.00116468e-17 -6.01570248e-27 8.79730645e-42)
(7.22137717e-18 2.07821159e-20 5.71931429e-35 -7.22137717e-18 -3.05750132e-32 3.71674314e-52)
(4.97666148e-18 1.66209565e-20 1.45566001e-34 -4.97666148e-18 -3.24827503e-32 2.40084259e-52)
(3.24309816e-18 1.23552844e-20 -1.57497601e-29 -3.24309816e-18 4.81998316e-27 8.68291236e-42)
(1.96595043e-18 8.43565193e-21 -1.45828137e-29 -1.96595043e-18 4.31584621e-27 1.30695889e-41)
(1.07823957e-18 5.1605863e-21 1.20764572e-29 -1.07823957e-18 -3.70872872e-27 3.28473203e-42)
(5.07347544e-19 2.68787453e-21 1.08966836e-29 -5.07347544e-19 -3.2374446e-27 6.9264739e-42)
(1.81094595e-19 1.0554754e-21 2.82409232e-35 -1.81094596e-19 -8.30451718e-33 5.69778274e-53)
(3.19523775e-20 2.03846377e-22 -1.29669218e-35 -3.19523779e-20 3.81125369e-33 1.52631195e-53)
(8.04952557e-22 5.59896552e-24 1.74704477e-35 -8.04952153e-22 -4.93466383e-33 2.86207724e-53)
(3.89428017e-20 2.94532084e-22 1.43780868e-36 -3.89428017e-20 -1.32098472e-33 5.16845592e-54)
(1.09491509e-19 8.99395947e-22 -1.00411203e-35 -1.09491509e-19 3.05226569e-33 2.40710512e-53)
(1.86447829e-19 1.66421514e-21 9.09506308e-36 -1.86447829e-19 -2.48844839e-33 2.0626189e-53)
(2.5428703e-19 2.47135605e-21 -5.80461057e-36 -2.54287031e-19 1.22336406e-33 5.94230168e-54)
(3.02551093e-19 3.21083033e-21 -3.48870044e-36 -3.02551093e-19 9.05358029e-34 6.3922823e-54)
(3.28284138e-19 3.81836728e-21 3.30058211e-36 -3.28284138e-19 -6.19386182e-34 3.91610785e-54)
(3.29903768e-19 4.22549936e-21 -4.06531454e-36 -3.29903768e-19 1.14112395e-33 2.08017885e-53)
(3.12480096e-19 4.43862877e-21 3.49309099e-36 -3.12480096e-19 -7.4033894e-34 1.24732047e-53)
(2.79585717e-19 4.44787469e-21 1.36797418e-36 -2.79585717e-19 -5.72992613e-34 1.64421617e-53)
(2.37001952e-19 4.28013911e-21 -1.236317e-36 -2.37001952e-19 3.40430363e-34 9.29735356e-54)
(1.89166603e-19 3.9483259e-21 0 -1.89166603e-19 0 0)
(1.40741375e-19 3.4783054e-21 0 -1.40741375e-19 0 0)
(9.57769003e-20 2.90160705e-21 0 -9.57769003e-20 0 0)
(5.74197598e-20 2.25198944e-21 3.15230358e-32 -5.74197598e-20 -8.48421066e-30 2.06223842e-43)
(2.79693999e-20 1.56590498e-21 3.05031479e-32 -2.79693999e-20 -4.95705299e-30 3.28318787e-43)
(8.70278028e-21 8.66253573e-22 1.25254012e-32 -8.70278028e-21 1.7309501e-31 1.65669675e-44)
(3.41609342e-22 1.69462269e-22 1.01110994e-33 -3.41609342e-22 1.24535686e-32 1.57308512e-44)
(3.18778342e-21 -5.09086064e-22 3.41204438e-34 -3.18778342e-21 -8.08562318e-32 9.27768226e-45)
(1.7107918e-20 -1.1530524e-21 1.35145499e-37 -1.7107918e-20 7.60076293e-36 2.61309116e-54)
(4.14394196e-20 -1.74077754e-21 1.41622148e-37 -4.14394196e-20 -2.56521198e-36 3.93674835e-55)
(7.50574923e-20 -2.25217615e-21 -3.94913262e-32 -7.50574923e-20 7.82271294e-30 2.14046428e-43)
(1.16146209e-19 -2.65844837e-21 -9.18250374e-32 -1.16146209e-19 1.49063114e-29 3.54102621e-43)
(1.62551815e-19 -2.93310609e-21 1.04575904e-31 -1.62551815e-19 -2.18863226e-29 4.05141675e-43)
(2.10601458e-19 -3.02876512e-21 1.89217193e-31 -2.10601458e-19 -3.22069663e-29 5.49122485e-43)
(2.5755386e-19 -2.92194566e-21 3.82706715e-36 -2.5755386e-19 -5.51554328e-34 1.27317194e-52)
(2.9609323e-19 -2.54259348e-21 7.77752265e-37 -2.9609323e-19 -1.15372452e-35 1.11130646e-54)
(3.25929739e-19 -1.91270741e-21 -8.33444125e-37 -3.25929739e-19 -8.07103545e-36 1.93528985e-54)
(3.31950957e-19 -9.92511498e-22 -2.24160626e-35 -3.31950957e-19 2.28128485e-33 1.42341283e-51)
(3.35798408e-19 1.05834221e-22 2.43399551e-37 -3.35798408e-19 8.07561371e-35 -8.91768893e-54)
(2.8069021e-19 1.28357186e-21 5.16455408e-35 -2.8069021e-19 -3.76075968e-33 4.14248184e-51)
(2.56227687e-19 2.67079693e-21 -5.0695751e-35 -2.56227687e-19 2.69725584e-33 3.5028656e-51)
(1.37029543e-19 2.73549532e-21 -3.05205564e-36 -1.37029543e-19 2.26040944e-34 2.74097015e-53)
(1.0377714e-19 3.86526094e-21 2.08778179e-35 -1.0377714e-19 -6.12019549e-34 9.99998386e-52)
(2.16980052e-20 2.56912706e-21 -4.00398976e-36 -2.16980052e-20 5.19873814e-35 1.31609585e-52)
(4.51611298e-24 -6.49187159e-25 -2.81487794e-37 -4.51611298e-24 -3.66135735e-36 1.02185333e-53)
(2.17731222e-21 5.26831616e-22 -1.056849e-33 -2.17731222e-21 9.72044063e-33 3.2657084e-48)
(4.55660499e-20 2.13610195e-20 2.03847747e-34 -4.55660499e-20 8.26226846e-34 1.43420162e-48)
(2.40378977e-20 1.80832429e-20 -2.86455092e-34 -2.40378977e-20 4.66150327e-36 1.98594922e-48)
(7.59280353e-21 4.58599529e-21 -1.90346489e-34 -7.59280353e-21 3.7154576e-34 4.238744e-49)
(2.1070629e-19 2.3277028e-19 -1.00915615e-32 -2.1070629e-19 3.09372985e-32 2.28152702e-47)
(7.57344041e-19 1.11417266e-18 1.34324184e-32 -7.57344041e-19 -2.17138182e-32 4.78512657e-48)
(1.21902854e-18 2.2882624e-18 -4.19067649e-32 -1.21902854e-18 6.10154494e-32 8.45371934e-48)
(1.05401783e-18 2.43152049e-18 -9.99860064e-31 -1.05401783e-18 1.57299112e-30 2.46653746e-46)
(3.57856268e-20 9.76917383e-20 1.61228396e-30 -3.57856268e-20 -2.28591808e-30 2.13949406e-46)
(2.32514326e-18 7.22678081e-18 2.22026737e-30 -2.32514326e-18 -3.03327606e-30 9.50818301e-47)
(1.88213263e-17 6.37467889e-17 4.60672673e-30 -1.88213263e-17 -5.95142542e-30 1.57831751e-46)
(4.73533094e-17 1.67750826e-16 5.86365011e-30 -4.73533094e-17 -7.49093614e-30 9.32382152e-47)
(8.27812188e-17 3.05756701e-16 -1.38377624e-30 -8.27812188e-17 1.77119681e-30 3.30221872e-47)
(1.21798058e-16 4.75965756e-16 -1.77991814e-30 -1.21798058e-16 2.24839826e-30 4.23137546e-47)
(1.64438976e-16 6.92429845e-16 -2.11706209e-30 -1.64438976e-16 2.62451798e-30 4.95516326e-47)
(2.22403515e-16 1.03031834e-15 -2.19284454e-29 -2.22403515e-16 2.55361002e-29 1.04003816e-45)
(3.17694748e-16 1.65587572e-15 -2.03139911e-29 -3.17694748e-16 2.30878216e-29 -7.18281743e-47)
(6.10003326e-16 3.48186109e-15 2.14400253e-29 -6.10003326e-16 -2.40548136e-29 5.44145429e-46)
(1.36359599e-15 7.28116401e-15 3.21785754e-30 -1.36359599e-15 -3.57770252e-30 -1.1623399e-47)
(3.35663791e-15 1.42982432e-14 -2.78754037e-29 -3.35663791e-15 3.20664816e-29 7.03154873e-47)
(9.94781227e-15 3.02700978e-14 3.3056064e-29 -9.94781227e-15 -4.14424874e-29 9.03844537e-47)
(2.73267729e-14 5.48125926e-14 2.80745207e-29 -2.73267729e-14 -3.69156902e-29 -8.3582546e-47)
(5.33477846e-14 6.40717785e-14 -1.58657776e-29 -5.33477846e-14 3.00981675e-29 8.91463957e-48)
(1.24248114e-14 7.73174871e-15 -5.77136268e-31 -1.24248114e-14 -1.9355557e-30 1.01277314e-47)
(4.71811179e-16 1.31744374e-16 -1.17463017e-30 -4.71811179e-16 8.2918463e-30 2.36960246e-48)
(7.67266358e-17 6.31619309e-18 -8.66787713e-33 -7.67266358e-17 5.17561588e-32 -6.1343672e-51)
(3.83573219e-18 6.35625811e-20 3.82157878e-34 -3.83573219e-18 -3.09152679e-32 2.71436442e-51)
(2.77621303e-15 5.2094181e-18 -1.0588393e-34 -2.77621303e-15 -2.38447187e-32 8.34791774e-55)
(1.62676707e-14 -5.71794526e-16 -1.54358507e-30 -1.62676707e-14 6.30180916e-30 3.83883602e-48)
(2.16764299e-14 -3.50680953e-15 1.18034318e-26 -2.16764299e-14 1.27156238e-25 7.70612005e-41)
(5.11770139e-16 -1.01509749e-16 -1.49654837e-27 -5.11770139e-16 -4.42447418e-27 8.51589125e-41)
(1.29612238e-15 -2.10292712e-15 8.7810792e-29 -1.29612238e-15 -1.86251819e-27 6.2301549e-41)
(6.11649421e-16 -1.26879337e-15 3.65683733e-27 -6.11649421e-16 6.15760635e-27 1.11456319e-41)
(2.46074033e-16 -7.46093243e-16 9.50635373e-31 -2.46074033e-16 -4.13626649e-31 -1.04311421e-46)
(7.76975645e-17 -3.42025517e-16 -2.63964892e-27 -7.76975645e-17 -3.44517813e-27 1.1330638e-41)
(5.49757084e-17 -3.03949038e-16 -2.86539763e-27 -5.49757084e-17 -3.69376356e-27 2.84417272e-41)
(2.7878432e-17 -1.61748365e-16 1.9442506e-27 -2.7878432e-17 2.37648971e-27 -1.87517543e-42)
(1.97268517e-17 -1.03838446e-16 2.47239601e-27 -1.97268517e-17 3.06212753e-27 1.58888915e-41)
(1.24872122e-17 -5.95448101e-17 7.38650271e-34 -1.24872122e-17 7.89328385e-34 -5.73746108e-54)
(8.0592178e-18 -3.58378035e-17 1.66547054e-29 -8.0592178e-18 2.10903449e-29 6.07433549e-46)
(5.81878701e-18 -2.4804505e-17 -4.55798747e-29 -5.81878701e-18 -5.70599379e-29 1.48609915e-45)
(5.52963485e-18 -2.298005e-17 -3.23590092e-29 -5.52963485e-18 -4.15225755e-29 3.13381453e-45)
(1.47753234e-17 -6.02414529e-17 5.10519173e-29 -1.47753234e-17 6.56708382e-29 1.5615119e-45)
(3.32073189e-17 -1.3048146e-16 1.15015112e-28 -3.32073189e-17 1.50704847e-28 2.56150906e-45)
(8.57314998e-17 -3.06592393e-16 1.40881558e-28 -8.57314998e-17 1.7446164e-28 1.0411117e-44)
(1.84536094e-16 -5.68718274e-16 -2.30485168e-28 -1.84536094e-16 -3.02452913e-28 1.00781251e-44)
(3.4391087e-16 -8.7365798e-16 3.61555571e-28 -3.4391087e-16 5.77364831e-28 2.35566685e-44)
(3.89726606e-16 -7.88786859e-16 -4.45159921e-28 -3.89726606e-16 -8.06390075e-28 2.36284212e-44)
(3.68183199e-16 -5.78004472e-16 -1.16724744e-27 -3.68183199e-16 -2.20099073e-27 1.91278888e-43)
(2.72878045e-16 -3.28271627e-16 7.79559184e-28 -2.72878045e-16 1.30793705e-27 6.1458732e-44)
(8.14216801e-17 -7.40037618e-17 3.26481684e-28 -8.14216801e-17 8.42636086e-28 1.4678383e-44)
(8.32858846e-19 -5.53841138e-19 4.6129899e-28 -8.32858807e-19 1.20052146e-27 2.17180109e-44)
(2.32788148e-16 -1.05634488e-16 -4.63567023e-26 -2.32788148e-16 -2.13544879e-25 6.68674051e-40)
(4.3940402e-15 -1.21905474e-15 -5.71277325e-26 -4.3940402e-15 -2.36693965e-25 1.42833733e-39)
(1.44871801e-16 -1.95485586e-17 1.16668622e-26 -1.44871802e-16 4.86857707e-25 1.54308511e-39)
(9.45306901e-16 -6.43355116e-17 2.66949498e-26 -9.45306902e-16 7.43928126e-25 1.57624555e-39)
(1.1306372e-14 -5.57816361e-16 -2.36154091e-34 -1.1306372e-14 -7.9682732e-33 9.26905347e-56)
(9.0637641e-15 -3.26722067e-16 -4.43055575e-26 -9.0637641e-15 -2.0538789e-24 3.90154768e-39)
(1.50219953e-14 -4.16278045e-16 -3.70050349e-26 -1.50219953e-14 -2.3929179e-24 6.70898559e-39)
(1.73330394e-14 -3.74051081e-16 5.60415089e-26 -1.73330394e-14 3.50119519e-24 1.74433226e-39)
(2.06327689e-14 -3.50890748e-16 4.56164724e-26 -2.06327689e-14 3.76734282e-24 5.8748479e-39)
(2.25819589e-14 -3.01908843e-16 2.91231648e-30 -2.25819589e-14 3.08655091e-28 4.68843279e-47)
(2.40404525e-14 -2.48982785e-16 -2.2267559e-30 -2.40404525e-14 -2.28446987e-28 6.32409989e-48)
(2.44959469e-14 -1.90197367e-16 -8.04299473e-31 -2.44959469e-14 -1.25028248e-28 9.97713151e-48)
(2.4158642e-14 -1.32395889e-16 3.50195241e-26 -2.4158642e-14 5.91620504e-24 9.58932395e-39)
(2.29591179e-14 -7.87554265e-17 3.55979823e-26 -2.29591179e-14 6.10999731e-24 1.79311987e-38)
(2.11312875e-14 -3.28994903e-17 -1.36250405e-26 -2.11312875e-14 -6.17240849e-24 2.11883657e-39)
(1.88558686e-14 3.42009474e-18 -1.65963678e-26 -1.88558686e-14 -6.21487206e-24 1.02224051e-38)
(1.62777471e-14 2.94830823e-17 -1.11704102e-31 -1.62777471e-14 -2.71127017e-30 5.99647353e-50)
(1.35185225e-14 4.53501016e-17 1.81248982e-31 -1.35185225e-14 1.58102796e-28 7.21660867e-48)
(1.07853264e-14 5.21106452e-17 1.43245012e-31 -1.07853264e-14 8.310919e-29 3.98286821e-48)
(8.22918409e-15 5.14978489e-17 4.19529274e-31 -8.22918409e-15 -2.28858071e-28 1.19678478e-47)
(5.95917455e-15 4.55751118e-17 1.31322063e-26 -5.95917455e-15 -6.54009877e-24 1.54983809e-38)
(4.04628523e-15 3.64778599e-17 7.49106497e-28 -4.04628523e-15 -6.36283718e-24 2.57803562e-38)
(2.52483029e-15 2.6190768e-17 -3.75357809e-26 -2.52483029e-15 5.26195043e-24 5.60310973e-39)
(1.3960125e-15 1.638363e-17 -2.42390069e-26 -1.3960125e-15 5.04408158e-24 1.35021413e-38)
(6.34222264e-16 8.31937127e-18 -4.64101682e-31 -6.34222265e-16 8.29420636e-29 4.28737522e-48)
(1.93151934e-16 2.80682892e-18 2.41760874e-31 -1.93151933e-16 -2.66309484e-29 2.03195582e-49)
(1.33940708e-17 2.14214682e-19 3.01515496e-26 -1.33940708e-17 -3.83454407e-24 1.3203e-38)
(2.92587357e-17 5.12520242e-19 2.09069931e-26 -2.92587365e-17 -3.56754051e-24 1.94001647e-38)
(1.74886614e-16 3.34341064e-18 -3.58637777e-26 -1.74886614e-16 2.56244735e-24 5.82688543e-39)
(3.89442269e-16 8.10479412e-18 -2.68823595e-26 -3.89442269e-16 2.34999619e-24 9.84799849e-39)
(6.21344112e-16 1.40518898e-17 7.3062324e-32 -6.21344112e-16 -5.85319153e-30 8.21856878e-50)
(8.30732074e-16 2.03957056e-17 7.25775862e-32 -8.30732074e-16 -5.19389162e-30 8.64704263e-50)
(9.91398923e-16 2.64220583e-17 -2.69147899e-32 -9.91398923e-16 2.41223741e-31 3.96512804e-51)
(1.08981222e-15 3.15662132e-17 -3.89721531e-32 -1.08981222e-15 2.53955338e-30 4.29332865e-50)
(1.12272725e-15 3.54438924e-17 -2.19514518e-33 -1.12272725e-15 -4.40649759e-32 2.05916256e-52)
(1.09577778e-15 3.78884759e-17 1.71169309e-33 -1.09577778e-15 -1.75768943e-32 -2.15377498e-53)
(1.0164413e-15 3.87646055e-17 4.13367765e-32 -1.0164413e-15 -1.64610452e-30 6.02155882e-50)
(8.98853557e-16 3.815454e-17 -3.39141198e-32 -8.98853557e-16 9.17943788e-31 2.84878332e-50)
(7.5462505e-16 3.60700709e-17 -1.83906318e-32 -7.5462505e-16 6.3434949e-31 2.91865141e-50)
(6.00207214e-16 3.28119337e-17 1.34343613e-32 -6.00207214e-16 -2.83679524e-31 1.14254337e-50)
(4.46621862e-16 2.85541688e-17 7.93202273e-34 -4.46621862e-16 -5.36653476e-32 1.05837593e-51)
(3.06092795e-16 2.36521485e-17 -2.42128495e-33 -3.06092795e-16 1.30340275e-31 1.48855057e-50)
(1.86397026e-16 1.83258281e-17 1.33161511e-33 -1.86397026e-16 -5.46233594e-32 7.71944423e-51)
(9.36841708e-17 1.28066549e-17 -9.16070897e-34 -9.36841708e-17 2.64198343e-32 7.6283071e-51)
(3.18189216e-17 7.29926304e-18 -6.22277252e-36 -3.18189216e-17 1.06845787e-34 1.09441272e-54)
(2.58495153e-18 2.01759805e-18 1.55880162e-34 -2.58495153e-18 4.46982383e-34 4.85333913e-51)
(5.49933701e-18 -2.82104694e-18 -4.07128457e-29 -5.49933701e-18 -1.01302489e-28 2.02046674e-41)
(3.80440548e-17 -7.0888989e-18 -4.09427684e-28 -3.80440548e-17 -2.03642604e-27 3.34020589e-40)
(9.67466786e-17 -1.07455597e-17 1.51209883e-28 -9.67466786e-17 4.97454789e-27 2.9500679e-40)
(1.77671928e-16 -1.37798709e-17 2.07620234e-27 -1.77671928e-16 3.47773352e-26 2.88815578e-39)
(2.76843844e-16 -1.62019333e-17 1.49909217e-27 -2.76843844e-16 2.97411687e-26 9.26399596e-40)
(3.89573257e-16 -1.79787896e-17 7.66066324e-32 -3.89573257e-16 2.05408861e-30 2.1081194e-48)
(5.11284688e-16 -1.90916669e-17 3.23635974e-32 -5.11284688e-16 9.90120716e-31 2.80851756e-49)
(6.35999594e-16 -1.94737628e-17 -3.16211561e-27 -6.35999594e-16 -1.08852285e-25 2.28942017e-39)
(7.58715248e-16 -1.90943906e-17 -3.60633866e-27 -7.58715248e-16 -1.32316039e-25 2.46950621e-39)
(8.71277925e-16 -1.78346866e-17 3.97198413e-27 -8.71277925e-16 1.9777642e-25 3.71722849e-39)
(9.69439817e-16 -1.56733545e-17 4.19897056e-27 -9.69439817e-16 2.25130951e-25 3.80453845e-39)
(1.03947269e-15 -1.24407812e-17 5.53682364e-32 -1.03947269e-15 2.99404839e-30 6.28140729e-49)
(1.08540725e-15 -8.2575395e-18 -8.85799251e-32 -1.08540725e-15 -7.46424788e-30 3.01424098e-48)
(1.08073844e-15 -3.04481691e-18 -1.77709291e-31 -1.08073844e-15 -1.53360101e-29 1.14638584e-47)
(1.06501795e-15 2.82394613e-18 1.31068165e-31 -1.06501795e-15 1.60203371e-29 1.26265211e-47)
(9.31520314e-16 8.6070966e-18 -2.92833766e-32 -9.31520314e-16 7.23400547e-30 2.31770011e-48)
(8.88456825e-16 1.55867599e-17 4.79243674e-32 -8.88456825e-16 -6.23992234e-30 2.12169056e-48)
(6.1228925e-16 1.75607845e-17 1.33490348e-32 -6.1228925e-16 7.45558213e-30 4.61895656e-48)
(6.42487212e-16 2.84665241e-17 3.48713818e-32 -6.42487212e-16 -1.11790054e-29 1.54248412e-47)
(2.51526671e-16 1.72127079e-17 1.98864546e-32 -2.51526671e-16 5.86197081e-31 2.21082082e-49)
(8.92589759e-17 1.13990895e-17 -1.35441533e-31 -8.92589759e-17 2.50489428e-30 3.66899034e-48)
(1.33463004e-16 3.6213845e-17 -2.50315087e-31 -1.33463004e-16 6.67602169e-30 4.77705425e-46)
(2.75677589e-17 8.44229326e-18 -2.70033257e-30 -2.75677589e-17 4.97644782e-30 -8.68317134e-45)
(9.73725638e-18 3.63691202e-18 -5.07776194e-30 -9.73725638e-18 2.07977516e-29 3.42252716e-45)
(2.17849255e-16 1.13725035e-16 2.18519273e-29 -2.17849255e-16 -7.79009803e-29 3.24940022e-44)
(4.83774791e-16 3.52125814e-16 7.5744059e-29 -4.83774791e-16 -1.77881118e-28 1.10000769e-43)
(1.01101936e-15 9.93973535e-16 -1.12463754e-28 -1.01101936e-15 3.02617202e-28 9.06337345e-44)
(1.30408992e-15 1.66968843e-15 -1.75633101e-28 -1.30408992e-15 2.40019297e-28 9.93180141e-44)
(1.45940301e-15 2.36523131e-15 1.10118539e-27 -1.45940301e-15 -1.7312427e-27 5.08953979e-43)
(5.73007549e-16 1.14068165e-15 -6.81805133e-28 -5.73007549e-16 8.4836784e-28 1.64677318e-43)
(2.25152571e-17 5.34809068e-17 -1.27237609e-27 -2.25152571e-17 1.65889348e-27 1.13077125e-43)
(3.65329108e-15 1.00548887e-14 1.77855627e-27 -3.65329108e-15 -2.254075e-27 6.9748951e-44)
(1.69068888e-14 5.21290517e-14 -1.0040988e-26 -1.69068888e-14 1.38595427e-26 8.2270172e-43)
(4.66743949e-14 1.55218805e-13 -7.25159941e-27 -4.66743949e-14 1.04127709e-26 3.44956646e-43)
(7.26013816e-14 2.57260573e-13 -8.77242898e-27 -7.26013816e-14 1.23998442e-26 1.23886054e-43)
(9.85957716e-14 3.74512029e-13 3.97716762e-27 -9.85957716e-14 -5.07537512e-27 1.3767465e-43)
(1.3009591e-13 5.365085e-13 1.61430177e-26 -1.3009591e-13 -2.11932787e-26 7.85541916e-43)
(1.69695227e-13 7.72207169e-13 2.97136504e-26 -1.69695227e-13 -3.76806094e-26 4.4663502e-43)
(2.38793776e-13 1.21851801e-12 1.93803775e-26 -2.38793776e-13 -2.50473655e-26 4.24894982e-44)
(3.78480655e-13 2.11341089e-12 -1.39526666e-26 -3.78480655e-13 1.90467113e-26 1.23791285e-42)
(8.36349399e-13 4.4173965e-12 -2.92357103e-26 -8.36349399e-13 3.77062642e-26 5.31002255e-43)
(2.00718477e-12 8.5222253e-12 7.70234197e-27 -2.00718477e-12 -9.16842826e-27 -4.04343211e-45)
(5.05818421e-12 1.54083588e-11 1.0507722e-26 -5.05818421e-12 -9.92209012e-27 -3.79027732e-43)
(1.32222158e-11 2.67001183e-11 -2.00241072e-26 -1.32222158e-11 4.00946107e-26 1.51894014e-42)
(2.05521041e-11 2.5205601e-11 -3.13394941e-26 -2.05521041e-11 3.33941718e-26 -1.2026919e-42)
(1.22911101e-11 8.02995889e-12 8.57469782e-27 -1.22911101e-11 1.14808584e-27 -2.04782181e-44)
(2.66624739e-13 8.40033982e-14 1.79024272e-27 -2.66624739e-13 -1.14711265e-26 4.34916559e-45)
(8.97967223e-14 1.09050413e-14 1.06852427e-28 -8.97967223e-14 -4.9997325e-28 -1.19653434e-46)
(1.33611756e-13 5.67079364e-15 -2.02427713e-33 -1.33611756e-13 1.8165216e-32 -7.54149716e-55)
(1.66140328e-13 2.02384086e-15 -1.92486859e-29 -1.66140328e-13 2.50930303e-27 6.1349366e-47)
(4.75027659e-12 -1.16945621e-13 -7.95043775e-28 -4.75027659e-12 -3.89317613e-28 5.44491987e-46)
(1.30867805e-12 -1.67615481e-13 -1.12533103e-24 -1.30867805e-12 -1.56705784e-23 8.31408781e-39)
(7.90056504e-14 -1.84305383e-14 -9.28925404e-25 -7.90056504e-14 -5.28352688e-24 2.03241032e-38)
(5.41246198e-16 -2.09890685e-15 -1.56885061e-25 -5.41246198e-16 -2.33277686e-25 2.46153262e-39)
(5.01672033e-16 -1.04789432e-15 -1.89263275e-25 -5.01672033e-16 -3.06144193e-25 7.06265395e-40)
(3.2064731e-15 -9.02068787e-15 4.941854e-28 -3.2064731e-15 7.26022722e-28 6.56714153e-45)
(1.86584289e-16 -7.53797942e-16 5.23761178e-28 -1.86584289e-16 5.41848846e-28 -8.68368096e-45)
(3.3731116e-16 -1.68320159e-15 3.38359862e-26 -3.3731116e-16 5.67678416e-26 -5.68101915e-40)
(6.77907116e-17 -3.5336956e-16 4.53158589e-26 -6.77907116e-17 5.32896493e-26 1.44552172e-40)
(1.07214084e-16 -5.19187791e-16 4.98670054e-28 -1.07214084e-16 6.58856434e-28 1.97783049e-44)
(5.46260723e-17 -2.47687458e-16 1.19909038e-31 -5.46260723e-17 7.86128955e-32 1.79787634e-50)
(3.06301186e-17 -1.33434064e-16 -1.26258117e-27 -3.06301186e-17 -1.58803035e-27 4.97172258e-44)
(1.70106753e-17 -7.30115908e-17 -8.86208082e-29 -1.70106754e-17 -1.21103001e-28 4.23550514e-45)
(4.82827223e-18 -2.06194254e-17 9.87354121e-28 -4.82827225e-18 1.05795938e-27 1.2135661e-43)
(5.30441915e-17 -2.23988014e-16 -3.38247917e-30 -5.30441915e-17 -3.9019129e-30 6.61258587e-50)
(4.95367887e-17 -2.00563756e-16 -2.99159489e-27 -4.95367886e-17 -4.69211751e-27 4.21202293e-43)
(2.12860018e-16 -7.76194391e-16 -3.71525857e-28 -2.12860018e-16 -4.94686747e-28 4.8755426e-46)
(4.86082901e-16 -1.51025804e-15 1.04656639e-27 -4.86082901e-16 4.73512861e-27 6.5056385e-43)
(1.23187934e-15 -3.12362947e-15 1.11688892e-27 -1.23187934e-15 -5.54506751e-27 1.34585429e-42)
(7.84746891e-16 -1.57629346e-15 2.96265928e-26 -7.8474689e-16 6.1945811e-26 4.59755905e-42)
(1.03420033e-15 -1.61024703e-15 4.76977358e-26 -1.03420033e-15 8.39359906e-26 7.45057058e-42)
(1.44378892e-15 -1.724866e-15 -2.82678265e-26 -1.44378892e-15 -1.10289879e-25 8.52439687e-42)
(2.49947362e-16 -2.2604462e-16 -2.85348597e-26 -2.4994736e-16 -1.51543941e-25 1.57915448e-41)
(3.80641544e-16 -2.530162e-16 -2.3686427e-26 -3.80641537e-16 -2.09693492e-25 2.44709772e-41)
(3.82635518e-14 -1.7627811e-14 -3.03438994e-26 -3.82635518e-14 -1.27129515e-25 6.99026291e-42)
(4.31131318e-13 -1.28475412e-13 3.96746133e-24 -4.31131318e-13 -4.99758459e-24 1.33087276e-37)
(2.05773743e-15 -3.47090025e-16 3.29969861e-24 -2.05773743e-15 -1.63994021e-23 1.31331632e-37)
(6.15678421e-15 -6.45070946e-16 7.83391704e-29 -6.1567842e-15 1.48701045e-27 8.53025273e-47)
(3.79869443e-13 -2.9999437e-14 1.51095619e-29 -3.79869443e-13 -7.59026206e-28 3.39208082e-47)
(1.39948076e-13 -8.25732458e-15 -1.68405299e-29 -1.39948076e-13 7.17907378e-28 2.41621793e-47)
(2.41728211e-13 -1.11333927e-14 7.61288061e-25 -2.41728211e-13 -3.37880558e-23 4.45365245e-38)
(2.14037931e-13 -7.76585428e-15 7.24105461e-25 -2.14037932e-13 -3.06231476e-23 3.3906861e-38)
(2.2717021e-13 -6.54245963e-15 4.62840744e-29 -2.2717021e-13 -1.84295815e-27 1.22012816e-46)
(2.14681761e-13 -4.87107251e-15 -2.86301261e-29 -2.14681761e-13 1.01766735e-27 4.05457188e-47)
(2.04620529e-13 -3.58035865e-15 -2.33948331e-30 -2.04620529e-13 7.04178995e-29 2.3584687e-49)
(1.8594052e-13 -2.40199693e-15 2.34473405e-30 -1.8594052e-13 -5.61609641e-29 2.10772698e-49)
(1.64538119e-13 -1.4451959e-15 -1.70026515e-29 -1.64538119e-13 -2.93052175e-27 6.92162256e-47)
(1.39252739e-13 -6.93047112e-16 -6.0276147e-25 -1.39252739e-13 6.46185814e-24 1.25805823e-38)
(1.14675662e-13 -1.61214652e-16 -5.74206878e-25 -1.14675662e-13 2.10927267e-24 1.17935477e-38)
(8.98202229e-14 1.78922584e-16 -5.72380325e-30 -8.9820223e-14 1.83489555e-28 -7.63272827e-48)
(6.53154933e-14 3.43158399e-16 9.49568159e-30 -6.53154933e-14 2.7585994e-27 1.96959745e-46)
(4.39686647e-14 3.70230125e-16 1.33332204e-29 -4.39686647e-14 -2.46519063e-27 6.51869166e-47)
(2.69441291e-14 3.10709332e-16 1.27867767e-29 -2.69441291e-14 -2.71839602e-27 8.74501926e-47)
(1.43761852e-14 2.10182781e-16 -2.89767144e-29 -1.43761853e-14 -5.49892543e-28 5.78328501e-47)
(6.0759392e-15 1.07650432e-16 -2.48163405e-29 -6.07593925e-15 5.05103737e-27 4.18500205e-46)
(1.5288881e-15 3.18872638e-17 3.03200145e-25 -1.52888808e-15 1.90197819e-23 2.30979788e-38)
(1.59184093e-17 3.8320362e-19 2.53663512e-25 -1.59184225e-17 1.98188577e-23 2.59181273e-38)
(7.25891394e-16 1.98942564e-17 2.37950967e-30 -7.25891433e-16 2.30800717e-28 3.82838976e-48)
(2.85046466e-15 8.8086463e-17 0 -2.85046468e-15 0 0)
(5.65803759e-15 1.95833885e-16 -1.67153721e-31 -5.65803757e-15 -2.56461148e-29 6.35697102e-50)
(8.54365449e-15 3.2972992e-16 9.3750755e-26 -8.54365449e-15 1.88292462e-23 4.19324107e-38)
(1.10500131e-14 4.74258152e-16 1.22961947e-25 -1.10500131e-14 3.43946162e-23 1.76996978e-37)
(1.28796485e-14 6.1404079e-16 3.43931144e-26 -1.28796485e-14 1.52519286e-23 4.55223828e-38)
(1.38778132e-14 7.35120235e-16 9.95653859e-30 -1.38778132e-14 -2.61097407e-28 5.74220331e-48)
(1.4022933e-14 8.26659984e-16 3.42867829e-30 -1.4022933e-14 -1.68711728e-28 6.04523747e-48)
(1.33864284e-14 8.81057289e-16 3.16197943e-30 -1.33864284e-14 -9.3691645e-29 2.55707512e-48)
(1.21225131e-14 8.95534543e-16 -1.00212436e-30 -1.21225131e-14 2.24223664e-29 -1.8203913e-49)
(1.04203367e-14 8.7110993e-16 -2.007629e-30 -1.04203367e-14 3.98475291e-29 1.17231397e-48)
(8.47532791e-15 8.11622909e-16 -2.03912305e-32 -8.47532791e-15 3.77820406e-30 3.39625733e-50)
(6.49143565e-15 7.24929719e-16 1.91942491e-32 -6.49143565e-15 -2.82241861e-30 3.6019379e-50)
(4.60783071e-15 6.1583558e-16 8.39667002e-31 -4.60783071e-15 -9.82777321e-30 5.28304547e-49)
(2.97498101e-15 4.94552864e-16 -1.48673377e-31 -2.97498101e-15 4.68346319e-30 3.6481877e-49)
(1.66035012e-15 3.65302342e-16 -5.48533723e-31 -1.66035012e-15 2.21877267e-30 5.34645242e-49)
(7.2606279e-16 2.3726928e-16 2.22149698e-32 -7.2606279e-16 5.34788958e-32 3.73092941e-51)
(1.75784397e-16 1.13617435e-16 -4.51562275e-32 -1.75784397e-16 1.28435597e-31 4.12245949e-50)
(2.88450991e-22 -6.08909704e-20 2.4668611e-32 -2.88450991e-22 1.70073583e-31 1.63321598e-48)
(1.61888376e-16 -1.00861236e-16 -2.91596649e-27 -1.61888376e-16 -1.27686568e-25 7.40142972e-38)
(6.03818202e-16 -1.85038579e-16 -4.83628863e-27 -6.03818202e-16 -3.87742114e-25 7.22881986e-38)
(1.24407417e-15 -2.49218502e-16 -9.66712508e-33 -1.24407417e-15 3.30304905e-30 1.3509166e-48)
(2.02020896e-15 -2.96690431e-16 1.58752447e-30 -2.02020896e-15 8.15881603e-30 4.53538982e-48)