/*--------------------------------*- C++ -*----------------------------------*\
| =========                 |                                                 |
| \\      /  F ield         | OpenFOAM: The Open Source CFD Toolbox           |
|  \\    /   O peration     | Version:  2506                                  |
|   \\  /    A nd           | Website:  www.openfoam.com                      |
|    \\/     M anipulation  |                                                 |
\*---------------------------------------------------------------------------*/
FoamFile
{
    version     2.0;
    format      ascii;
    arch        "LSB;label=32;scalar=64";
    class       volSymmTensorField;
    location    "2644";
    object      Tij9;
}
// * * * * * * * * * * * * * * * * * * * * * * * * * * * * * * * * * * * * * //

dimensions      [0 0 0 0 0 0 0];

internalField   nonuniform List<symmTensor> 
15600
(
(-3.57754826e-13 -1.77205598e-15 1.32150311e-34 -3.57745506e-13 -1.03908976e-34 7.15500332e-13)
(-5.11308676e-13 4.28609781e-15 3.13348815e-31 -5.11699799e-13 -6.57450624e-31 1.02300848e-12)
(-1.17082238e-13 -1.63174239e-15 1.38877546e-32 -1.16378702e-13 -1.2816434e-33 2.3346094e-13)
(-5.94180446e-19 3.69521485e-19 -2.45388493e-31 -5.39666627e-19 3.88451523e-32 1.13384707e-18)
(-8.10251914e-15 -3.24272478e-16 3.45507735e-28 -7.28856829e-15 -1.59347883e-28 1.53910874e-14)
(-9.49654823e-15 -1.98709279e-16 -1.15844867e-30 -8.68855257e-15 9.1769111e-31 1.81851008e-14)
(-3.59165905e-15 -3.41640479e-17 -3.90994461e-31 -3.37852088e-15 2.80515573e-31 6.97017993e-15)
(-2.65183162e-15 -2.13891555e-17 -3.76858039e-30 -2.46119437e-15 3.01806615e-30 5.11302598e-15)
(-2.03873125e-15 -1.16119631e-17 3.12904182e-29 -1.90775284e-15 -4.0439259e-29 3.9464841e-15)
(-1.65573648e-15 -8.71818445e-18 3.6467532e-29 -1.55132521e-15 -4.22847991e-29 3.20706169e-15)
(-1.36578367e-15 -6.00406941e-18 2.97779792e-30 -1.30065462e-15 -2.44910463e-30 2.66643829e-15)
(-1.35730237e-15 -5.22965233e-18 8.22884971e-35 -1.30677173e-15 -7.52896152e-35 2.6640741e-15)
(-1.54521902e-15 -4.66094056e-18 -1.79890194e-32 -1.50391077e-15 1.4298604e-32 3.04912979e-15)
(-2.08044883e-15 -4.59198526e-18 -1.4802755e-30 -2.04216312e-15 1.16148497e-30 4.12261194e-15)
(-3.27029537e-15 -5.81568156e-18 1.77526628e-30 -3.22380315e-15 -1.46405626e-30 6.49409852e-15)
(-5.67927245e-15 -1.00376573e-17 -1.03737107e-32 -5.60125383e-15 7.94000647e-33 1.12805263e-14)
(-9.803665e-15 -2.39685961e-17 1.28376945e-30 -9.62378372e-15 -1.22943794e-30 1.94274487e-14)
(-1.5975995e-14 -4.86236702e-17 2.24303766e-30 -1.56410937e-14 -1.27469811e-30 3.16170887e-14)
(-2.45109286e-14 -9.44007268e-17 -6.8169273e-30 -2.39443237e-14 4.88446439e-30 4.84552523e-14)
(-3.45546644e-14 -1.57719281e-16 -8.2271113e-30 -3.3764535e-14 5.53256366e-30 6.83191994e-14)
(-4.4173482e-14 -2.21736853e-16 -5.14938811e-30 -4.32789877e-14 4.22009565e-30 8.74524697e-14)
(-5.26481468e-14 -2.1492483e-16 6.25909132e-30 -5.19716011e-14 -4.63323782e-30 1.04619748e-13)
(-6.05108913e-14 -1.30093807e-16 3.04531464e-29 -6.01960371e-14 -1.43143864e-29 1.20706928e-13)
(-6.61178086e-14 1.91845183e-17 2.59559734e-31 -6.61529899e-14 -1.05259168e-31 1.32270798e-13)
(-6.90971883e-14 2.40052052e-16 3.46386656e-29 -6.94195639e-14 -1.05888276e-29 1.38516752e-13)
(-7.2052039e-14 7.41656535e-16 -5.14800673e-29 -7.27287912e-14 1.22707798e-29 1.4478083e-13)
(-7.26174004e-14 1.78297657e-16 1.09208029e-27 -7.27119427e-14 -2.50165513e-28 1.45329343e-13)
(-1.25244047e-13 2.18063593e-15 1.53167598e-27 -1.25676635e-13 -2.72182661e-28 2.50920682e-13)
(-3.8038762e-13 6.14890838e-15 -5.42966516e-29 -3.80738634e-13 3.27606284e-31 7.61126253e-13)
(-8.88394561e-13 8.60902845e-15 3.40827599e-37 -8.88741466e-13 -3.75940673e-39 1.77713603e-12)
(-1.55549999e-12 1.50868947e-14 1.8315042e-28 -1.55595018e-12 -1.67718459e-30 3.11145017e-12)
(-2.38566714e-12 2.00178022e-14 1.72974385e-26 -2.38613515e-12 -4.22028592e-27 4.77180229e-12)
(-3.30403623e-12 2.61626489e-14 1.9841008e-26 -3.30452713e-12 -5.82783122e-27 6.60856337e-12)
(-4.26976306e-12 3.17063351e-14 -3.92496103e-28 -4.27025025e-12 2.15769328e-30 8.54001331e-12)
(-5.22899316e-12 3.70896781e-14 -2.49044096e-30 -5.22946466e-12 1.23310776e-32 1.04584578e-11)
(-6.13794974e-12 4.16388553e-14 -2.97416297e-30 -6.13838859e-12 1.28804902e-32 1.22763383e-11)
(-6.9533752e-12 4.52791913e-14 3.26548253e-30 -6.95376855e-12 -1.24071217e-32 1.39071437e-11)
(-7.64069281e-12 4.77436208e-14 -5.8399192e-28 -7.64103014e-12 1.78872178e-30 1.52817229e-11)
(-8.17404907e-12 4.90332301e-14 -4.81563092e-26 -8.1743246e-12 1.36069355e-26 1.63483737e-11)
(-8.53787364e-12 4.91107435e-14 -4.68803605e-26 -8.53808508e-12 1.42635786e-26 1.70759587e-11)
(-8.72561079e-12 4.80457149e-14 6.20834766e-28 -8.72575937e-12 -1.33522966e-30 1.74513702e-11)
(-8.74008703e-12 4.59167834e-14 6.39273578e-31 -8.7401769e-12 -9.52441356e-32 1.74802639e-11)
(-8.59215935e-12 4.29248976e-14 1.76652481e-30 -8.59219731e-12 9.02952249e-32 1.71843567e-11)
(-8.2989657e-12 3.92786121e-14 -4.10806627e-30 -8.29896023e-12 -8.4731233e-32 1.65979259e-11)
(-7.88235241e-12 3.51857067e-14 -7.34467403e-31 -7.88231289e-12 8.66713121e-32 1.57646653e-11)
(-7.36706647e-12 3.08510777e-14 5.20637645e-28 -7.36700238e-12 -1.20149504e-31 1.47340689e-11)
(-6.77899136e-12 2.64634984e-14 5.63975113e-26 -6.77891171e-12 -1.16320175e-26 1.35579031e-11)
(-6.14363744e-12 2.21860478e-14 5.12845182e-26 -6.14355029e-12 -1.05639686e-26 1.22871877e-11)
(-5.48492907e-12 1.81512139e-14 -3.77136622e-28 -5.4848412e-12 -3.63732272e-31 1.09697703e-11)
(-4.82430387e-12 1.44575251e-14 6.84518453e-31 -4.82422066e-12 2.74183379e-32 9.64852453e-12)
(-4.1801421e-12 1.1171986e-14 -1.5646543e-30 -4.18006748e-12 -2.4223226e-32 8.36020958e-12)
(-3.56746995e-12 8.33153831e-15 2.14208666e-28 -3.56740647e-12 4.79601461e-31 7.13487641e-12)
(-2.99786387e-12 5.94643097e-15 3.58872278e-26 -2.99781284e-12 -4.88845622e-27 5.99567671e-12)
(-2.47952959e-12 4.00502802e-15 3.12215957e-26 -2.47949125e-12 -4.03830913e-27 4.95902084e-12)
(-2.0175153e-12 2.47812715e-15 -1.15590052e-28 -2.01748904e-12 -4.07135659e-31 4.03500434e-12)
(-1.61401053e-12 1.32424211e-15 -6.038506e-33 -1.6139951e-12 -1.67188572e-35 3.22800563e-12)
(-1.26870009e-12 4.93164253e-16 -4.65908659e-33 -1.2686938e-12 -1.42306395e-35 2.53739389e-12)
(-9.7916355e-13 -6.87657531e-17 1.15794153e-31 -9.79164506e-13 -9.37645492e-34 1.95832806e-12)
(-7.41309495e-13 -4.16171003e-16 4.16086882e-32 -7.41315791e-13 1.76196386e-33 1.48262529e-12)
(-5.49860001e-13 -6.00998699e-16 9.22551338e-33 -5.49869874e-13 -3.66655385e-34 1.09972987e-12)
(-3.98892722e-13 -6.67978667e-16 -2.52499731e-32 -3.98904647e-13 -1.23422581e-34 7.97797368e-13)
(-2.82333853e-13 -6.56293129e-16 4.73114798e-32 -2.82346609e-13 6.50342188e-34 5.64680462e-13)
(-1.94374827e-13 -5.93979944e-16 4.03417669e-32 -1.94387434e-13 -5.197114e-35 3.88762261e-13)
(-1.29675368e-13 -5.05363553e-16 -4.54394262e-32 -1.29687124e-13 -3.08582567e-34 2.59362492e-13)
(-8.34476629e-14 -4.06394943e-16 -1.34184532e-35 -8.34580734e-14 2.16183431e-38 1.66905736e-13)
(-5.14797969e-14 -3.10651768e-16 -1.65382989e-32 -5.14886222e-14 -2.90344099e-34 1.02968419e-13)
(-3.01831767e-14 -2.24998622e-16 1.11046264e-32 -3.01903356e-14 2.07996877e-34 6.03735123e-14)
(-1.66129873e-14 -1.53685848e-16 -5.42208604e-36 -1.66185383e-14 3.8236329e-39 3.32315257e-14)
(-8.42988625e-15 -9.78045239e-17 0 -8.43396904e-15 0 1.68638553e-14)
(-3.83709702e-15 -5.69149073e-17 0 -3.83991023e-15 0 7.67700726e-15)
(-1.49909966e-15 -2.93454006e-17 0 -1.50087772e-15 0 2.99997738e-15)
(-4.64285642e-16 -1.26439394e-17 1.48559133e-31 -4.65277427e-16 -2.89942354e-33 9.29563069e-16)
(-9.62137437e-17 -4.01641832e-18 -2.5054933e-29 -9.6663473e-17 -8.10441616e-31 1.92877217e-16)
(-8.22939721e-18 -6.5478616e-19 -8.2208087e-30 -8.35974886e-18 -5.43457671e-31 1.65891461e-17)
(-1.17276168e-20 -4.80700219e-21 -2.99419265e-32 -1.64968394e-20 -8.89762367e-33 2.82244562e-20)
(-8.87067298e-19 1.30096192e-19 2.05715386e-32 -9.28619781e-19 -3.35602802e-33 1.81568708e-18)
(-2.31681267e-17 1.54203648e-18 -2.30301857e-34 -2.33759894e-17 1.15252949e-35 4.65441161e-17)
(-1.24984423e-16 5.57480973e-18 -3.78817452e-34 -1.25452794e-16 1.15256227e-35 2.50437217e-16)
(-3.79991909e-16 1.30823768e-17 -1.03837726e-30 -3.80777009e-16 2.77152863e-32 7.60768917e-16)
(-8.51666282e-16 2.43635082e-17 1.32050792e-28 -8.52781586e-16 -1.04183359e-30 1.70444787e-15)
(-1.57090703e-15 3.91446302e-17 2.27642926e-28 -1.57231969e-15 -8.82919665e-31 3.14322672e-15)
(-2.51541264e-15 5.63811922e-17 4.01297227e-30 -2.51703434e-15 -5.42720984e-32 5.03244698e-15)
(-3.59606883e-15 7.45494722e-17 -1.07277586e-32 -3.59776036e-15 1.4467945e-34 7.19382919e-15)
(-4.64652615e-15 9.08598296e-17 -1.22314119e-32 -4.6480866e-15 4.12826721e-35 9.29461275e-15)
(-5.44616223e-15 1.03203999e-16 2.85237817e-32 -5.44737352e-15 -1.77401341e-34 1.08935357e-14)
(-5.74628284e-15 1.06982632e-16 7.69472917e-32 -5.74692258e-15 -5.62370369e-34 1.14932054e-14)
(-5.40217006e-15 1.04326236e-16 -1.03974908e-31 -5.4021043e-15 6.52069797e-34 1.08042744e-14)
(-4.35423315e-15 8.56283205e-17 2.62127913e-32 -4.35345001e-15 -1.38136727e-34 8.70768316e-15)
(-2.90136018e-15 6.67740064e-17 1.88654452e-32 -2.89996814e-15 -4.7562712e-35 5.80132832e-15)
(-1.37952998e-15 3.36631602e-17 -3.83963537e-32 -1.37818596e-15 -1.12593505e-34 2.75771593e-15)
(-4.02060204e-16 1.57989981e-17 1.74342908e-32 -4.00883312e-16 1.46608993e-34 8.02943516e-16)
(-2.45822208e-17 1.77026973e-18 -7.98905865e-34 -2.41630073e-17 -3.22157761e-35 4.87452281e-17)
(-1.66202481e-18 -6.5466362e-21 1.08921704e-36 -1.66014266e-18 -2.14008941e-37 3.32216747e-18)
(-3.86036064e-17 -6.97900678e-19 1.44176131e-33 -3.89413404e-17 8.5974611e-35 7.75449468e-17)
(-1.83137897e-17 2.05903644e-18 -1.06717192e-31 -1.63832682e-17 -2.0119581e-32 3.46970579e-17)
(-2.13139311e-18 4.50509173e-19 2.75644648e-32 -1.45357454e-18 6.86021351e-33 3.58496765e-18)
(-1.8937507e-20 -4.01498745e-20 4.7505435e-33 -6.74379415e-20 2.85598435e-33 8.63754485e-20)
(-2.64655212e-17 -5.21489137e-18 2.77154891e-31 -3.79874527e-17 1.43629757e-31 6.44529739e-17)
(-4.18403655e-16 -3.45493201e-17 -1.74596601e-30 -5.20058665e-16 -9.98943625e-31 9.38462319e-16)
(-3.09647112e-15 -1.063092e-16 6.70522233e-30 -3.49558129e-15 4.18358529e-30 6.59205242e-15)
(-1.57759682e-14 -2.01928323e-16 1.06746079e-29 -1.67076276e-14 7.53172259e-30 3.24835958e-14)
(-6.22393536e-14 -6.78615965e-17 -5.25500541e-29 -6.26098664e-14 -3.52197218e-29 1.2484922e-13)
(-1.95349316e-13 9.06765183e-16 1.47703365e-28 -1.8971268e-13 1.06768634e-28 3.85061997e-13)
(-4.95958698e-13 3.92827497e-15 -7.70403057e-30 -4.69348998e-13 -5.67367205e-30 9.65307696e-13)
(-9.74198406e-13 8.53526315e-15 2.8125115e-28 -9.13725444e-13 2.09190731e-28 1.88792385e-12)
(-1.52326697e-12 1.38218146e-14 -1.4341985e-28 -1.4211638e-12 -1.45244709e-28 2.94443077e-12)
(-2.08916678e-12 1.91002042e-14 -1.58715825e-28 -1.93988619e-12 -1.72362361e-28 4.02905296e-12)
(-2.67881025e-12 2.42305026e-14 -1.63574941e-28 -2.47474764e-12 -1.92945109e-28 5.15355789e-12)
(-3.36253072e-12 3.01157121e-14 5.46265059e-28 -3.08349943e-12 3.47419912e-28 6.44603015e-12)
(-4.33278587e-12 3.8515408e-14 1.93738584e-28 -3.93128897e-12 2.64272212e-28 8.26407485e-12)
(-6.35595211e-12 6.15852992e-14 8.80084633e-28 -5.65290198e-12 8.7517901e-28 1.20088541e-11)
(-1.06577234e-11 1.22784156e-13 6.45816268e-28 -9.3464676e-12 5.18163903e-28 2.0004191e-11)
(-1.89941175e-11 2.86273221e-13 -7.60064173e-28 -1.65552461e-11 -5.80904633e-28 3.55493636e-11)
(-3.73698034e-11 8.07714695e-13 3.34181475e-28 -3.24542295e-11 2.32854239e-28 6.98240329e-11)
(-7.76011573e-11 2.31532425e-12 2.51179751e-27 -6.83129091e-11 1.49351217e-27 1.45914066e-10)
(-1.46275669e-10 5.3671466e-12 -2.87119317e-28 -1.33383564e-10 -1.29561665e-28 2.79659233e-10)
(-1.31681189e-10 2.87680807e-12 -6.44555033e-28 -1.28100811e-10 1.18935398e-27 2.59782e-10)
(-3.99334335e-11 3.30576021e-13 2.51968829e-30 -3.97488193e-11 2.88838709e-31 7.96822528e-11)
(-4.18720042e-12 -4.39407712e-14 -6.64824459e-30 -4.19443489e-12 -2.90917303e-31 8.38163531e-12)
(-4.70395861e-13 3.29166305e-15 -7.91332785e-34 -4.70286768e-13 2.89379309e-35 9.40682629e-13)
(-8.99341195e-10 -3.87479821e-12 -1.23219346e-31 -8.99355737e-10 -1.95105036e-34 1.79869693e-09)
(-9.08154131e-10 9.43751521e-12 -1.2795993e-27 -9.08817572e-10 -1.12866862e-27 1.8169717e-09)
(-2.85419188e-10 -6.05753138e-12 -2.38556863e-26 -2.83459215e-10 1.17064056e-27 5.68878403e-10)
(-1.40966911e-12 -6.34555635e-14 8.54898911e-26 -1.38449626e-12 4.40771564e-27 2.79416537e-12)
(-1.94068172e-12 9.2184902e-14 -1.11222264e-25 -2.23981725e-12 1.03972942e-25 4.18049897e-12)
(-6.01127717e-12 1.00115055e-13 -7.09576569e-27 -6.42663053e-12 4.2829671e-27 1.24379077e-11)
(-2.8130123e-12 3.69565376e-14 3.54652843e-28 -3.03711578e-12 -2.61964532e-28 5.85012808e-12)
(-2.12647817e-12 1.50880779e-14 4.92687267e-27 -2.25931394e-12 -4.02735286e-27 4.38579211e-12)
(-1.69376856e-12 1.01470571e-14 9.42228624e-26 -1.80597041e-12 -6.61852504e-26 3.49973897e-12)
(-1.43503684e-12 6.46757691e-15 8.3689777e-26 -1.51008553e-12 -6.00198295e-26 2.94512237e-12)
(-1.25802381e-12 5.32579366e-15 -4.64744661e-27 -1.31409177e-12 3.89945919e-27 2.57211559e-12)
(-1.31024756e-12 4.52158191e-15 -6.6883334e-32 -1.35336955e-12 8.07013166e-32 2.66361711e-12)
(-1.55824894e-12 4.08669597e-15 -2.98951385e-29 -1.59459446e-12 2.40816284e-29 3.1528434e-12)
(-2.16125827e-12 4.16604377e-15 1.55244971e-27 -2.19677655e-12 -1.34890839e-27 4.35803483e-12)
(-3.42767765e-12 5.17208932e-15 1.25462583e-27 -3.47066597e-12 -7.24462886e-28 6.89834362e-12)
(-5.84568247e-12 1.11489915e-14 -9.07442715e-29 -5.93659506e-12 7.13453012e-29 1.17822775e-11)
(-9.81405559e-12 2.20378885e-14 2.60085139e-27 -9.98724246e-12 -1.77331382e-27 1.9801298e-11)
(-1.55941616e-11 4.66439907e-14 -8.57064382e-27 -1.59277774e-11 6.13109491e-27 3.15219389e-11)
(-2.3397501e-11 8.96896516e-14 6.37797983e-27 -2.39503266e-11 -4.66673359e-27 4.73478276e-11)
(-3.25998235e-11 1.57267894e-13 8.15042147e-27 -3.33988581e-11 -5.58528909e-27 6.59986816e-11)
(-4.21510955e-11 2.08763707e-13 -1.24849105e-26 -4.29961498e-11 6.75499018e-27 8.51472452e-11)
(-5.19151426e-11 2.47255728e-13 -4.63008621e-27 -5.26914676e-11 3.74063592e-27 1.0460661e-10)
(-6.22312267e-11 2.53528418e-13 -3.01070949e-26 -6.28412149e-11 1.70333e-26 1.25072442e-10)
(-7.19763409e-11 1.59823258e-13 -3.87879155e-28 -7.22668661e-11 1.65125615e-28 1.44243207e-10)
(-8.10462255e-11 -1.8154916e-14 -1.53916395e-26 -8.10220799e-11 6.37824381e-27 1.62068305e-10)
(-9.12863171e-11 3.36924212e-13 1.06453651e-25 -9.15920957e-11 -3.02894396e-26 1.82878413e-10)
(-1.10652252e-10 -1.65264414e-12 3.59545613e-24 -1.09735254e-10 -3.29528162e-25 2.20387506e-10)
(-1.95071392e-10 -4.06447686e-13 5.58695252e-24 -1.94961702e-10 -1.02615906e-25 3.90033094e-10)
(-4.64600065e-10 -1.61636989e-12 7.0244853e-26 -4.64380052e-10 2.13201354e-27 9.28980116e-10)
(-9.11747309e-10 -7.85079824e-12 -8.69675697e-34 -9.10972648e-10 4.76433467e-36 1.82271996e-09)
(-1.43990771e-09 -8.84021137e-12 -2.29933159e-25 -1.43927038e-09 1.47201157e-27 2.8791781e-09)
(-2.03179083e-09 -1.35236208e-11 3.77722867e-23 -2.03104131e-09 3.26002871e-24 4.06283214e-09)
(-2.63449735e-09 -1.65450499e-11 4.82546086e-23 -2.63378326e-09 4.35955056e-24 5.26828061e-09)
(-3.21929585e-09 -1.9957067e-11 4.55871622e-25 -3.21861705e-09 -1.30840035e-27 6.43791289e-09)
(-3.75516287e-09 -2.25511837e-11 -3.75455885e-29 -3.75455988e-09 -2.38073493e-28 7.50972275e-09)
(-4.21951276e-09 -2.46661353e-11 -1.11278018e-28 -4.21900183e-09 -2.807409e-28 8.43851459e-09)
(-4.59344886e-09 -2.59795957e-11 7.56949881e-29 -4.59304543e-09 2.99439786e-28 9.18649429e-09)
(-4.8650269e-09 -2.65525978e-11 6.34410391e-25 -4.86473587e-09 1.47891889e-28 9.72976278e-09)
(-5.02843697e-09 -2.63166784e-11 -8.77310041e-23 -5.02825643e-09 -9.55983845e-24 1.00566934e-08)
(-5.08385661e-09 -2.5386494e-11 -9.3725201e-23 -5.08377756e-09 -9.6735572e-24 1.01676342e-08)
(-5.03630053e-09 -2.38685601e-11 -6.34353971e-25 -5.03630919e-09 -1.62397307e-27 1.00726097e-08)
(-4.89591568e-09 -2.18657109e-11 -2.51833911e-28 -4.89599489e-09 1.67030275e-28 9.79191058e-09)
(-4.67371692e-09 -1.94691182e-11 -1.06758419e-27 -4.67384754e-09 -4.10062357e-30 9.34756446e-09)
(-4.38592854e-09 -1.68460322e-11 1.05997079e-27 -4.38609133e-09 -1.49570531e-28 8.77201987e-09)
(-4.04900487e-09 -1.41384352e-11 3.01124607e-28 -4.04918182e-09 -1.39144861e-28 8.09818669e-09)
(-3.67882157e-09 -1.146816e-11 -5.18033312e-25 -3.67899698e-09 -2.97031429e-27 7.35781856e-09)
(-3.29043972e-09 -8.93712806e-12 8.73610026e-23 -3.29060086e-09 7.36450155e-24 6.58104059e-09)
(-2.89749621e-09 -6.62469094e-12 8.33114485e-23 -2.89763365e-09 6.55234019e-24 5.79512986e-09)
(-2.51178773e-09 -4.58636217e-12 3.68864998e-25 -2.51189538e-09 3.19230212e-27 5.02368311e-09)
(-2.14303404e-09 -2.85535657e-12 -3.74149496e-28 -2.14310895e-09 -2.56486265e-30 4.286143e-09)
(-1.7988004e-09 -1.44363535e-12 3.33317515e-28 -1.79884236e-09 -2.95536519e-29 3.59764276e-09)
(-1.48453979e-09 -3.45349235e-13 -2.17778164e-25 -1.48455083e-09 -2.47456002e-27 2.96909062e-09)
(-1.20372002e-09 4.59605006e-13 4.73359612e-23 -1.20370391e-09 2.95632049e-24 2.40742393e-09)
(-9.58015643e-10 1.0024082e-12 4.13774507e-23 -9.57977315e-10 2.42147665e-24 1.91599296e-09)
(-7.47542717e-10 1.32130434e-12 1.19722443e-25 -7.47487721e-10 1.80577106e-27 1.49503044e-09)
(-5.71114792e-10 1.45871816e-12 -2.9558326e-30 -5.71048814e-10 2.88852363e-31 1.14216361e-09)
(-4.26508573e-10 1.45752012e-12 -2.32065506e-30 -4.26437004e-10 2.34037445e-31 8.52945577e-10)
(-3.107329e-10 1.35897008e-12 1.05507754e-28 -3.10660463e-10 4.41221521e-30 6.21393363e-10)
(-2.20296682e-10 1.19960251e-12 -3.32445553e-29 -2.20227189e-10 -9.57510073e-31 4.40523871e-10)
(-1.51474703e-10 1.00953507e-12 8.7912788e-30 -1.51410962e-10 5.18601588e-31 3.02885665e-10)
(-1.00558144e-10 8.12509085e-13 -3.27176804e-31 -1.00501956e-10 -2.50802135e-31 2.010601e-10)
(-6.40550143e-11 6.24456708e-13 -9.09422704e-30 -6.40073838e-11 2.29445044e-32 1.28062398e-10)
(-3.8826577e-11 4.57081488e-13 2.51257029e-29 -3.87877726e-11 8.56274689e-31 7.76143496e-11)
(-2.2141686e-11 3.16166015e-13 -2.30464051e-31 -2.21114613e-11 -2.64186503e-31 4.42531473e-11)
(-1.16898657e-11 2.04782186e-13 -7.54827852e-30 -1.16674757e-11 -1.73406925e-31 2.33573414e-11)
(-5.57577855e-12 1.21907848e-13 3.17303542e-30 -5.56019052e-12 8.38075901e-32 1.11359691e-11)
(-2.30875215e-12 6.48568783e-14 -6.35180562e-30 -2.29872902e-12 -1.99781695e-31 4.60748117e-12)
(-7.73033633e-13 2.92103381e-14 2.08343798e-30 -7.6728994e-13 8.2033588e-32 1.54032357e-12)
(-1.8107193e-13 9.95932213e-15 -7.21133673e-31 -1.78349045e-13 -3.87067729e-32 3.59420975e-13)
(-2.04290426e-14 1.90454324e-15 -1.7231227e-33 -1.95552379e-14 -1.49959623e-34 3.99842805e-14)
(-2.26236014e-16 4.30884014e-17 -4.45956771e-33 -1.58973573e-16 -1.10753089e-33 3.85209587e-16)
(-7.31054028e-16 -1.31458921e-16 4.51119992e-29 -5.96182575e-16 -1.96657442e-29 1.3272366e-15)
(-2.58957568e-14 -2.36859108e-15 2.20312868e-26 -2.50130589e-14 -1.48691141e-27 5.09088157e-14)
(-1.59804272e-13 -9.53823276e-15 1.70275138e-25 -1.57685467e-13 -6.56147913e-27 3.17489739e-13)
(-5.29652169e-13 -2.36453382e-14 2.07087623e-25 -5.25984401e-13 -5.51574986e-27 1.05563657e-12)
(-1.27621838e-12 -4.59084972e-14 -3.83246644e-27 -1.27084491e-12 1.35132876e-28 2.54706328e-12)
(-2.5301029e-12 -7.6757346e-14 1.91735826e-29 -2.52301821e-12 -3.0641825e-31 5.05312111e-12)
(-4.39083115e-12 -1.15908583e-13 4.61074052e-30 -4.38217496e-12 3.43262998e-33 8.77300611e-12)
(-6.90834379e-12 -1.62212947e-13 1.34009301e-26 -6.89841015e-12 -1.97660539e-28 1.38067539e-11)
(-1.00646645e-11 -2.13902143e-13 2.05337753e-24 -1.00538981e-11 -2.40100788e-26 2.01185626e-11)
(-1.37560896e-11 -2.68025303e-13 2.54927464e-24 -1.37451169e-11 -2.71178387e-26 2.75012065e-11)
(-1.77721596e-11 -3.2139084e-13 -2.70551454e-26 -1.77617674e-11 1.77331166e-28 3.5533927e-11)
(-2.17867689e-11 -3.68505812e-13 -7.98101892e-29 -2.17779481e-11 1.40996613e-31 4.3564717e-11)
(-2.53432836e-11 -4.06159052e-13 -1.00564649e-28 -2.53371036e-11 1.09017925e-30 5.06803872e-11)
(-2.7902273e-11 -4.25270305e-13 2.06903821e-28 -2.78998768e-11 -7.04940206e-31 5.58021498e-11)
(-2.88646543e-11 -4.29389717e-13 -1.03377959e-28 -2.88669314e-11 -1.77096394e-30 5.77315856e-11)
(-2.77867179e-11 -3.93992945e-13 3.53975694e-28 -2.77939988e-11 4.11471323e-30 5.55807167e-11)
(-2.4399177e-11 -3.60526409e-13 -2.32010194e-28 -2.44118269e-11 -2.89680021e-30 4.88110038e-11)
(-1.91687836e-11 -2.65211824e-13 -1.98330294e-28 -1.91839965e-11 -3.5210248e-30 3.83527801e-11)
(-1.2671737e-11 -2.20787027e-13 2.02513367e-28 -1.26913017e-11 5.78332719e-30 2.53630388e-11)
(-6.73081078e-12 -1.00523468e-13 -3.30527445e-29 -6.74456901e-12 -1.70821087e-30 1.34753798e-11)
(-2.21808632e-12 -3.42043693e-14 -9.45669423e-31 -2.22682267e-12 3.94476291e-32 4.44490898e-12)
(-2.38740352e-13 -1.36178708e-14 -1.46904693e-28 -2.46130497e-13 -2.16891723e-29 4.84870848e-13)
(-5.64323451e-14 2.99080864e-15 -3.94980892e-28 -5.4600547e-14 -5.38327946e-29 1.11032892e-13)
(-8.97514338e-14 2.21786366e-15 -3.6629768e-28 -8.80946684e-14 -6.38936399e-29 1.77846102e-13)
(-2.31392161e-13 1.60477943e-14 9.71486094e-28 -2.14637126e-13 2.18904478e-28 4.46029287e-13)
(-7.38346149e-13 4.05659686e-14 -2.93483645e-27 -6.79292536e-13 -9.1664785e-28 1.41763869e-12)
(-2.13371685e-12 9.33597224e-14 -5.92632194e-27 -1.9501455e-12 -2.3106998e-27 4.08386235e-12)
(-5.62183451e-12 1.60439348e-13 1.14995461e-26 -5.21099823e-12 5.44392328e-27 1.08328327e-11)
(-1.49659666e-11 2.57140644e-13 -2.26856069e-26 -1.4132479e-11 -1.24356592e-26 2.90984456e-11)
(-3.92996633e-11 2.43626478e-13 4.26501108e-26 -3.83296927e-11 2.53468465e-26 7.7629356e-11)
(-9.85111645e-11 -7.16810562e-14 7.13838234e-26 -9.88516951e-11 4.99155807e-26 1.9736286e-10)
(-2.2554771e-10 -1.30680448e-12 -1.64056214e-25 -2.327411e-10 -1.27364352e-25 4.5828881e-10)
(-4.62059935e-10 -3.84637229e-12 2.88338417e-25 -4.85778993e-10 2.12572885e-25 9.47838928e-10)
(-8.05181541e-10 -8.18673001e-12 -2.52264706e-25 -8.59632571e-10 -1.90908765e-25 1.66481411e-09)
(-1.19429113e-09 -1.2089207e-11 -3.42055061e-25 -1.27996653e-09 -2.29962826e-25 2.47425765e-09)
(-1.58515014e-09 -1.57261955e-11 -4.10220406e-25 -1.70462077e-09 -2.76895264e-25 3.28977092e-09)
(-1.97530135e-09 -1.94257885e-11 -4.56182514e-25 -2.13552316e-09 -3.08670584e-25 4.11082451e-09)
(-2.40048658e-09 -2.33814557e-11 -9.57389701e-25 -2.6132837e-09 -8.53739711e-25 5.01377027e-09)
(-2.95571897e-09 -2.92236323e-11 4.10314393e-25 -3.25396395e-09 2.56010237e-25 6.20968292e-09)
(-4.01099326e-09 -4.12032979e-11 7.40789472e-26 -4.47114622e-09 -3.04012135e-25 8.48213948e-09)
(-6.14964395e-09 -7.83765525e-11 -4.08456158e-25 -6.97757617e-09 -3.4975473e-25 1.31272201e-08)
(-1.02224953e-08 -1.74472404e-10 5.39750409e-25 -1.17040661e-08 4.42940505e-25 2.19265614e-08)
(-1.86938711e-08 -4.37515509e-10 2.85235165e-25 -2.1359411e-08 -8.97051846e-25 4.00532822e-08)
(-3.65387604e-08 -1.17964e-09 -5.8666599e-25 -4.13029433e-08 -2.45096472e-24 7.78417037e-08)
(-6.99413102e-08 -2.40835987e-09 -9.44850234e-25 -7.58486526e-08 3.16281034e-24 1.45789963e-07)
(-8.15144606e-08 -2.28930004e-09 3.89503142e-25 -8.45057259e-08 -8.7218614e-25 1.66020187e-07)
(-4.25310785e-08 2.56772718e-10 -3.95764823e-27 -4.23692797e-08 -3.89837431e-28 8.49003581e-08)
(-9.02987389e-09 6.98374137e-11 2.78677452e-26 -9.01291158e-09 1.63693556e-27 1.80427855e-08)
(-1.69656316e-09 3.69130147e-11 -1.58510957e-30 -1.69342982e-09 -2.50490107e-32 3.38999298e-09)
(-1.3768033e-07 3.71187131e-10 -1.8828288e-29 -1.37671286e-07 -1.01626412e-29 2.75351616e-07)
(-1.06472683e-07 1.74870924e-09 -1.0908264e-27 -1.06558785e-07 2.24634455e-25 2.13031468e-07)
(-4.00766321e-08 -5.60077525e-10 2.24487245e-24 -3.99331627e-08 -2.81066187e-26 8.00097948e-08)
(-1.27828725e-09 2.40434457e-11 4.48323366e-23 -1.28950502e-09 -1.1316667e-23 2.56779226e-09)
(-1.3832735e-11 1.01569427e-13 -1.69820347e-24 -1.46204902e-11 7.87647854e-25 2.84532252e-11)
(-2.54087314e-10 5.8069117e-13 4.13993994e-25 -2.56513214e-10 -2.33351824e-25 5.10600528e-10)
(-1.55786187e-10 1.01937027e-12 -1.04779434e-27 -1.61521723e-10 7.29234834e-28 3.1730791e-10)
(-1.22300896e-10 1.82788796e-13 2.71960621e-26 -1.23777824e-10 -2.136108e-26 2.4607872e-10)
(-1.01272153e-10 2.02070615e-13 -7.57732569e-24 -1.03288841e-10 6.2324858e-24 2.04560994e-10)
(-8.94230647e-11 8.29614583e-14 -7.72998089e-24 -9.02879635e-11 6.41148689e-24 1.79711028e-10)
(-8.24922295e-11 1.03766e-13 2.95036592e-26 -8.34972101e-11 -2.41067697e-26 1.6598944e-10)
(-8.92227544e-11 7.9410744e-14 -3.77629835e-29 -8.99428884e-11 2.73910298e-29 1.79165643e-10)
(-1.09699275e-10 6.71810429e-14 2.25571768e-27 -1.10284597e-10 -1.80445297e-27 2.19983872e-10)
(-1.55315453e-10 5.99806156e-14 4.93839402e-27 -1.55830339e-10 4.17681072e-27 3.11145791e-10)
(-2.46976036e-10 4.0379813e-14 -3.20190025e-25 -2.47320925e-10 2.60331645e-25 4.94296962e-10)
(-4.13439484e-10 1.7416514e-13 3.23080948e-28 -4.14910368e-10 -2.83476441e-28 8.28349852e-10)
(-6.76604701e-10 2.19394711e-13 -5.38679168e-25 -6.78381264e-10 4.22132415e-25 1.35498597e-09)
(-1.04983208e-09 5.94265878e-13 -1.95644683e-27 -1.05416606e-09 1.48903848e-27 2.10399814e-09)
(-1.54255571e-09 1.16950423e-12 6.14710105e-25 -1.549823e-09 -4.48443873e-25 3.09237871e-09)
(-2.12591964e-09 2.38653201e-12 -8.8020541e-25 -2.13802252e-09 5.99964583e-25 4.26394216e-09)
(-2.77360521e-09 2.3895606e-12 1.1744173e-24 -2.78320486e-09 -7.26376867e-25 5.55681008e-09)
(-3.50848018e-09 3.38687182e-12 -2.55961931e-25 -3.51902688e-09 -1.0618897e-25 7.02750707e-09)
(-4.36379821e-09 4.85176207e-12 -2.35584242e-24 -4.37539082e-09 8.99696775e-25 8.73918904e-09)
(-5.32116802e-09 2.39044057e-12 -2.81507008e-24 -5.3254917e-09 1.07960869e-24 1.06466597e-08)
(-6.42075101e-09 -3.42684081e-12 -3.60587724e-24 -6.4161953e-09 1.14791268e-24 1.28369463e-08)
(-7.83876872e-09 3.96687231e-11 3.50185991e-25 -7.87531905e-09 3.05950305e-25 1.57140878e-08)
(-1.08257092e-08 -1.60315561e-10 -4.59070716e-22 -1.07301624e-08 6.52112653e-23 2.15558716e-08)
(-1.81578075e-08 -1.46671353e-11 -6.68198348e-22 -1.81528595e-08 5.53977914e-23 3.6310667e-08)
(-3.4036022e-08 -3.51494072e-11 8.68409596e-29 -3.40286565e-08 1.38976332e-29 6.80646784e-08)
(-5.60333853e-08 -3.55827883e-10 -3.7751846e-26 -5.59771837e-08 1.42433609e-27 1.12010569e-07)
(-7.87838449e-08 -2.56537113e-10 4.80409483e-26 -7.87535721e-08 -1.37449393e-27 1.57537417e-07)
(-1.00878751e-07 -3.8184547e-10 -2.88715991e-21 -1.00843577e-07 6.36405353e-23 2.01722328e-07)
(-1.20686885e-07 -3.93218215e-10 -3.31981015e-21 -1.20658351e-07 5.74497081e-23 2.41345237e-07)
(-1.37406348e-07 -4.32396427e-10 -2.51014728e-25 -1.37381443e-07 3.41399753e-27 2.74787791e-07)
(-1.50409238e-07 -4.39878977e-10 1.754221e-25 -1.50389276e-07 -1.86060157e-27 3.00798514e-07)
(-1.59405199e-07 -4.42168676e-10 1.56677047e-26 -1.59389725e-07 -1.26139815e-28 3.18794924e-07)
(-1.6431424e-07 -4.27987304e-10 -1.68100679e-26 -1.64303183e-07 9.7587363e-29 3.28617423e-07)
(-1.65287514e-07 -4.03822261e-10 -3.02476084e-28 -1.6528042e-07 -5.50050972e-31 3.30567933e-07)
(-1.62644264e-07 -3.68535209e-10 4.82202079e-21 -1.62640596e-07 -9.25395901e-24 3.2528486e-07)
(-1.56830394e-07 -3.28413682e-10 4.806705e-21 -1.5682947e-07 -8.71371895e-25 3.13659864e-07)
(-1.48368716e-07 -2.82706074e-10 1.9770587e-27 -1.48369842e-07 9.68699938e-27 2.96738558e-07)
(-1.37850075e-07 -2.32375103e-10 -1.25421407e-26 -1.37852517e-07 -9.21305708e-27 2.75702593e-07)
(-1.25727614e-07 -1.82079537e-10 -4.53229447e-26 -1.2573068e-07 -2.08317174e-28 2.51458293e-07)
(-1.12766295e-07 -1.34985585e-10 8.70202063e-27 -1.12769408e-07 5.15441921e-29 2.25535703e-07)
(-9.94898921e-08 -9.26112798e-11 1.29762765e-25 -9.94926001e-08 7.80426472e-27 1.98982492e-07)
(-8.63438889e-08 -5.6086362e-11 -1.2673438e-25 -8.63458763e-08 -1.28429007e-27 1.72689765e-07)
(-7.36964677e-08 -2.59910028e-11 -3.65541951e-21 -7.36975519e-08 -3.84328833e-23 1.4739402e-07)
(-6.18355115e-08 -2.42913834e-12 -3.29184662e-21 -6.18356284e-08 -3.96370497e-23 1.2367114e-07)
(-5.09702871e-08 1.48916419e-11 -3.35987004e-26 -5.09694708e-08 -4.5771902e-28 1.01939758e-07)
(-4.12366568e-08 2.65402539e-11 0 -4.12350165e-08 0 8.24716733e-08)
(-3.27047252e-08 3.32959835e-11 2.94662642e-27 -3.27024203e-08 5.02060873e-29 6.54071455e-08)
(-2.53878659e-08 3.60433872e-11 -1.93768076e-21 -2.53850839e-08 -3.66702197e-23 5.07729498e-08)
(-1.92524205e-08 3.56892781e-11 -3.17883659e-21 -1.9249357e-08 -6.66704318e-23 3.85017775e-08)
(-1.4227587e-08 3.31159064e-11 -1.26758995e-21 -1.42244294e-08 -2.94407993e-23 2.84520163e-08)
(-1.02150607e-08 2.91193938e-11 -1.82563431e-27 -1.02119757e-08 -2.52942314e-28 2.04270364e-08)
(-7.09811246e-09 2.43917977e-11 3.70900362e-27 -7.09523664e-09 1.15689698e-28 1.41933491e-08)
(-4.74993269e-09 1.94866934e-11 3.0591099e-29 -4.74736757e-09 8.21495939e-30 9.49730027e-09)
(-3.04113739e-09 1.48294171e-11 -1.27477621e-27 -3.03894639e-09 2.68835355e-29 6.08008378e-09)
(-1.84631922e-09 1.07042957e-11 2.40682393e-28 -1.84452952e-09 9.82928618e-30 3.69084874e-09)
(-1.04949298e-09 7.2700197e-12 -1.55312024e-28 -1.04810058e-09 -7.13177972e-30 2.09759355e-09)
(-5.4811853e-10 4.59009189e-12 9.93131369e-29 -5.47093335e-10 5.30120904e-30 1.09521186e-09)
(-2.55431647e-10 2.63250311e-12 -5.7529345e-29 -2.5472798e-10 -3.76134287e-30 5.10159626e-10)
(-1.01193321e-10 1.32458916e-12 -1.12403019e-28 -1.00752928e-10 -5.67589105e-30 2.01946249e-10)
(-3.11999318e-11 5.43602429e-13 4.88995402e-29 -3.09607302e-11 4.98383291e-30 6.2160662e-11)
(-6.20692282e-12 1.55740079e-13 -4.34435403e-31 -6.10513455e-12 -4.04166492e-31 1.23120574e-11)
(-4.77683518e-13 1.86325086e-14 5.41949679e-32 -4.53597445e-13 3.57019341e-32 9.31280963e-13)
(-4.38671726e-20 -1.71277682e-23 3.25727595e-34 -3.66359517e-20 4.15905506e-35 8.05031243e-20)