/*--------------------------------*- C++ -*----------------------------------*\
| =========                 |                                                 |
| \\      /  F ield         | OpenFOAM: The Open Source CFD Toolbox           |
|  \\    /   O peration     | Version:  2506                                  |
|   \\  /    A nd           | Website:  www.openfoam.com                      |
|    \\/     M anipulation  |                                                 |
\*---------------------------------------------------------------------------*/
FoamFile
{
    version     2.0;
    format      ascii;
    arch        "LSB;label=32;scalar=64";
    class       volVectorField;
    location    "2644";
    object      U;
}
// * * * * * * * * * * * * * * * * * * * * * * * * * * * * * * * * * * * * * //

dimensions      [0 1 -1 0 0 0 0];

internalField   nonuniform List<vector> 
15600
(
(0.0226360211 -2.41536007e-05 -5.57222158e-24)
(0.0260688251 -0.00068867305 -2.2838687e-20)
(0.0170331262 -0.00213840293 0)
(-0.00173585303 0.000144024004 -5.0384942e-19)
(-0.0107991313 0.00469257798 -5.2683834e-23)
(-0.0100095698 0.00599906813 -2.25394851e-21)
(-0.00734501283 0.00523816678 -1.61774703e-18)
(-0.00645641998 0.00503346354 1.73547242e-18)
(-0.00572291246 0.00468315989 -5.25002133e-16)
(-0.00514204136 0.00426299503 -5.67405468e-16)
(-0.00464388731 0.0038038627 5.50917812e-22)
(-0.00441647324 0.00354820477 -1.13761972e-21)
(-0.00435955588 0.00344731042 1.23342275e-21)
(-0.00450503998 0.00351671885 -2.65770117e-18)
(-0.00485952158 0.00375381596 -2.80677372e-18)
(-0.0053991683 0.00413545244 -2.89725332e-21)
(-0.00600368703 0.0045507891 -3.08909882e-18)
(-0.00659294882 0.00488021028 6.52150022e-18)
(-0.0071497358 0.00507945697 -3.44460862e-18)
(-0.00760856349 0.00508603536 -3.67672005e-18)
(-0.00791132461 0.00485503382 3.90896037e-18)
(-0.00810040423 0.00441930474 -4.15552388e-18)
(-0.00824540985 0.00387195842 -1.07363278e-22)
(-0.00830273625 0.00323837133 -1.00840382e-22)
(-0.00827562638 0.00254265627 2.41233819e-18)
(-0.00827369925 0.00182873502 0)
(-0.00808302339 0.00105714924 -3.68482353e-16)
(-0.00924605617 0.000400875308 -3.77360023e-16)
(-0.0126387454 9.02402774e-05 1.21233685e-24)
(-0.0159720858 8.73227215e-05 3.64533761e-32)
(-0.0185943138 9.12416319e-05 0)
(-0.0208899478 9.28854207e-05 -4.44137162e-16)
(-0.0228280637 9.48058605e-05 -4.60073916e-16)
(-0.0244879515 9.58432612e-05 0)
(-0.0258950274 9.63949988e-05 0)
(-0.0270780176 9.61553283e-05 0)
(-0.0280517011 9.51615059e-05 0)
(-0.0288295319 9.33832762e-05 -6.20334618e-21)
(-0.0294228287 9.09140014e-05 5.22478354e-16)
(-0.0298425782 8.77965873e-05 5.46262496e-16)
(-0.030098487 8.40945097e-05 -6.63832971e-21)
(-0.0302001741 7.98444421e-05 -7.11282546e-21)
(-0.0301571542 7.51187823e-05 7.11278058e-21)
(-0.0299788742 7.00047461e-05 -7.61321117e-21)
(-0.0296748683 6.45789069e-05 7.61445352e-21)
(-0.029254687 5.89132406e-05 0)
(-0.0287277708 5.30754813e-05 -7.13201409e-16)
(-0.0281033641 4.71285205e-05 -7.40839553e-16)
(-0.0273904525 4.11302942e-05 -8.79688385e-21)
(-0.0265977122 3.51330014e-05 4.46633467e-21)
(-0.0257335232 2.91854216e-05 -4.72961723e-21)
(-0.0248060325 2.3332978e-05 9.59392892e-21)
(-0.0238232202 1.76179202e-05 -8.19585014e-16)
(-0.0227929862 1.20801604e-05 -8.44116185e-16)
(-0.0217232566 6.75736487e-06 -2.56238421e-21)
(-0.0206220719 1.68503098e-06 0)
(-0.019497592 -3.10646057e-06 1.58264104e-31)
(-0.0183579723 -7.59344727e-06 -1.40436075e-21)
(-0.0172110081 -1.1766657e-05 2.12244399e-21)
(-0.0160635934 -1.56334841e-05 -7.17531987e-22)
(-0.0149214115 -1.9208942e-05 0)
(-0.0137888429 -2.251804e-05 1.51850942e-21)
(-0.0126697776 -2.55577549e-05 -1.51971956e-21)
(-0.0115681885 -2.83359852e-05 1.81509312e-31)
(-0.010488323 -3.08432619e-05 0)
(-0.00943381937 -3.3119077e-05 -3.24328384e-21)
(-0.00840719783 -3.51792972e-05 3.24568231e-21)
(-0.00741025503 -3.7054748e-05 0)
(-0.0064442471 -3.87501283e-05 0)
(-0.00551073347 -4.02688891e-05 0)
(-0.00461189414 -4.16133886e-05 0)
(-0.00375009273 -4.28011226e-05 0)
(-0.0029269655 -4.38750152e-05 1.18142084e-15)
(-0.00214316206 -4.4862056e-05 2.38233383e-15)
(-0.00139853082 -4.57798353e-05 1.19987718e-15)
(-0.000692776446 -4.6631224e-05 -2.92158554e-20)
(-2.61137469e-05 -4.7408124e-05 1.46837387e-20)
(0.000600203436 -4.80942418e-05 -1.49573381e-20)
(0.00118400775 -4.86950575e-05 1.49514019e-20)
(0.00172185786 -4.91982538e-05 1.26766679e-15)
(0.00220879937 -4.96016643e-05 1.26547208e-15)
(0.00263736425 -4.98763718e-05 -1.53282566e-20)
(0.00299806063 -5.00366207e-05 1.55737953e-20)
(0.00327698007 -5.00225925e-05 -3.12646361e-20)
(0.003458582 -4.99249354e-05 1.56920278e-20)
(0.00352071869 -4.96565054e-05 -3.18679668e-20)
(0.00344829187 -4.95620974e-05 6.39787166e-20)
(0.00320357275 -4.88567605e-05 -3.21141545e-20)
(0.00278071556 -4.90651037e-05 -3.26149112e-20)
(0.00210805167 -4.77406187e-05 6.55093947e-20)
(0.00124781423 -4.98003317e-05 -3.29004917e-20)
(5.57066389e-05 -4.47108788e-05 -4.06435861e-24)
(-0.00178011324 -8.80791804e-05 0)
(-0.00252950084 -0.000318520313 3.39467215e-20)
(-0.00227581247 -0.000429643467 -8.6814194e-18)
(-0.00181789312 -0.000440312721 -2.9867824e-22)
(-0.000939220494 -0.000205328948 -1.65459754e-17)
(0.000139245293 0.000263606008 -1.61587857e-17)
(0.00143990711 0.00101494137 1.55544882e-17)
(0.00318480003 0.0021884188 -1.49475762e-17)
(0.00551112583 0.00388230605 1.43606192e-17)
(0.00850353274 0.00614127085 1.3796819e-17)
(0.0121174173 0.00890975271 0)
(0.0161722553 0.0119929721 0)
(0.0200498511 0.0149084478 -1.21458413e-17)
(0.0233336392 0.017454192 -1.15442211e-17)
(0.0262703692 0.0198669484 -1.08919457e-17)
(0.0291303228 0.0223634871 -1.01820592e-17)
(0.0322208434 0.0251890504 -9.41386887e-18)
(0.0360341374 0.0287406654 8.56146155e-18)
(0.0419150433 0.033785622 7.62073269e-18)
(0.0506004907 0.0400706475 -6.5970569e-18)
(0.0619176992 0.0466569782 5.42227827e-18)
(0.0775387709 0.0532526297 4.0593811e-18)
(0.0978094477 0.0573731848 -2.35385412e-18)
(0.118473318 0.0525951816 0)
(0.114904818 0.0311508683 -8.32359958e-19)
(0.0810090332 0.0103143939 0)
(0.0420693395 0.00133369604 9.61970453e-20)
(0.0225325819 9.39013713e-06 0)
(0.0784119404 -6.66504806e-05 0)
(0.0843035966 -0.00189874737 -4.34361405e-23)
(0.0592911399 -0.00587850811 -1.40363707e-22)
(0.00565353983 -0.000231836096 5.42949117e-16)
(-0.0260203139 0.0127638827 6.82496342e-16)
(-0.0275628411 0.0171080494 -2.34763463e-18)
(-0.020950212 0.0152396291 4.39772481e-24)
(-0.0184014686 0.0147125799 -2.67466605e-18)
(-0.0164066486 0.0137532007 8.12663382e-16)
(-0.0148473436 0.012572331 8.71083064e-16)
(-0.0135371337 0.0112742672 -1.62514691e-21)
(-0.0129441736 0.0105470092 1.78262866e-21)
(-0.0128394477 0.0102757724 -1.8698973e-21)
(-0.0132984705 0.0105030309 -4.09040706e-18)
(-0.0143340488 0.0112152238 8.6164477e-18)
(-0.0158624031 0.0123332196 -4.3823701e-21)
(-0.0175657745 0.0135400044 4.73964448e-18)
(-0.0192350287 0.0144948732 -4.99549209e-18)
(-0.020817501 0.015062543 1.0190864e-20)
(-0.0221536868 0.0150675271 -1.09590027e-20)
(-0.0231163157 0.0143939755 -5.89869025e-18)
(-0.0238167336 0.0131340577 6.27047456e-18)
(-0.0244130067 0.0115369636 6.63788297e-18)
(-0.0248071319 0.00968021457 -1.3504493e-20)
(-0.0250232209 0.00763985795 3.62254853e-18)
(-0.0253159266 0.00552218312 -3.75100237e-18)
(-0.0255702337 0.00334237097 5.58981919e-16)
(-0.0295188779 0.00157230511 5.52865073e-16)
(-0.038673124 0.000712288385 -3.58133271e-24)
(-0.0474298703 0.000605301306 -5.35202456e-32)
(-0.0543158668 0.000513645297 0)
(-0.0602310846 0.000439425383 6.55554339e-16)
(-0.0651602304 0.00037689107 6.57811591e-16)
(-0.0693140981 0.00032295384 3.13121903e-20)
(-0.0727722797 0.000275490808 -1.58136729e-20)
(-0.0756144642 0.000232079495 -1.67462849e-20)
(-0.0778860158 0.000191653979 1.67101734e-20)
(-0.0796274342 0.000153607501 1.27420008e-31)
(-0.0808729965 0.000117835332 -7.57631005e-16)
(-0.0816548939 8.40872667e-05 -7.75119804e-16)
(-0.0820016797 5.22275321e-05 0)
(-0.0819416223 2.21634823e-05 1.01985241e-20)
(-0.0815026179 -6.05975907e-06 3.5452495e-22)
(-0.0807117518 -3.24331329e-05 -1.05548292e-20)
(-0.0795957578 -5.69520262e-05 -1.12915435e-20)
(-0.0781809812 -7.96246515e-05 2.29776536e-20)
(-0.0764931458 -0.000100477187 1.0316354e-15)
(-0.0745571931 -0.000119549812 1.05894577e-15)
(-0.0723971724 -0.000136892593 1.24855348e-20)
(-0.0700361762 -0.000152561136 0)
(-0.0674964199 -0.000166602013 -6.83731574e-21)
(-0.0647994249 -0.000179049563 6.85491135e-21)
(-0.0619662086 -0.00018992446 1.19382935e-15)
(-0.0590175174 -0.000199228311 1.22362774e-15)
(-0.0559740961 -0.00020694511 -3.82617574e-21)
(-0.0528568831 -0.000213047984 -8.86328955e-23)
(-0.0496869878 -0.000217523863 -8.70832851e-23)
(-0.0464853155 -0.00022040136 4.04075736e-21)
(-0.0432716381 -0.000221798953 -1.05601805e-21)
(-0.0400633078 -0.000221925342 1.05969598e-21)
(-0.0368745571 -0.000221016248 -1.10394665e-21)
(-0.033716499 -0.000219275334 1.10781139e-21)
(-0.0305991598 -0.00021671333 4.60137132e-21)
(-0.0275328529 -0.000213330177 -4.61731974e-21)
(-0.0245284639 -0.000209106668 0)
(-0.0215952526 -0.000204269311 0)
(-0.0187397594 -0.000198960915 0)
(-0.0159667404 -0.00019333661 0)
(-0.0132797039 -0.000187402127 0)
(-0.0106829346 -0.000181079867 0)
(-0.00818228672 -0.00017431207 0)
(-0.00578392521 -0.000167152941 2.13977211e-20)
(-0.00349216186 -0.00015979422 -1.79117195e-15)
(-0.00130882913 -0.000152405062 -3.64247479e-15)
(0.000766197605 -0.000145053119 -1.84807849e-15)
(0.00273331102 -0.00013768963 -4.45846286e-20)
(0.00459152852 -0.000130175283 -2.12764815e-22)
(0.00633714219 -0.000122292748 2.25341639e-20)
(0.00796399409 -0.000113861761 2.29083786e-20)
(0.00946250037 -0.000104582979 -1.90386385e-15)
(0.0108189557 -9.41041276e-05 -1.93756159e-15)
(0.0120129539 -8.19055408e-05 2.3216242e-20)
(0.0130183353 -6.74770945e-05 0)
(0.0137972786 -4.99902178e-05 4.74998658e-20)
(0.0143065722 -2.89919957e-05 -4.74961529e-20)
(0.0144851688 -3.7561156e-06 -4.82446071e-20)
(0.0142842605 2.5466967e-05 4.82483489e-20)
(0.0136028205 6.16189803e-05 0)
(0.0124106568 0.000101216196 0)
(0.0105173264 0.000150366724 4.99128251e-20)
(0.00804264396 0.00019459647 -1.0047666e-19)
(0.00457843863 0.000291206969 5.05933973e-20)
(-0.000483576622 0.000264183662 0)
(-0.00254587443 -0.000295233924 -7.31740121e-23)
(-0.00185349415 -0.000448123185 0)
(-0.000480950014 -0.000269177563 1.30435867e-17)
(0.00196134283 0.000589973932 -2.54646195e-17)
(0.00494602731 0.00211205665 -4.83533772e-20)
(0.00855789688 0.00441974891 4.61118728e-20)
(0.0133635873 0.00788115407 4.45285476e-20)
(0.0196710969 0.0127513696 -2.17836703e-17)
(0.027641737 0.019136642 -4.09588685e-20)
(0.0371087317 0.0268752153 -1.98583587e-17)
(0.0476055589 0.0354441263 0)
(0.0577126045 0.0436132787 0)
(0.0664764929 0.0508695219 1.72544285e-17)
(0.074377426 0.0577892759 1.62780229e-17)
(0.0820668484 0.0649542832 1.52200221e-17)
(0.0903207856 0.0730373737 2.58883513e-20)
(0.100381371 0.0831041163 -1.27781872e-17)
(0.115449338 0.0970933249 -2.26833915e-17)
(0.137558601 0.114286669 0)
(0.166771771 0.132176495 0)
(0.206872616 0.14959017 -5.83496484e-18)
(0.258886612 0.159816526 -3.30122075e-18)
(0.313901064 0.146713427 3.98522831e-19)
(0.316960191 0.0908157384 1.19387753e-18)
(0.244247781 0.0338831594 0)
(0.144490391 0.0064917499 0)
(0.0857214657 0.000829671857 0)
(0.146897853 0.000141573657 0)
(0.150468502 -0.00296837625 3.49397562e-20)
(0.110879983 -0.00947530273 0)
(0.0244075086 -0.00239838313 -5.49146872e-16)
(-0.034966105 0.0184622122 -7.00640883e-16)
(-0.0430858652 0.0267439346 2.41286422e-18)
(-0.033896993 0.0244268665 0)
(-0.0298293232 0.023707168 3.43886461e-22)
(-0.0267260968 0.0222881403 -2.97076203e-18)
(-0.0243138032 0.0204822667 3.21899566e-18)
(-0.0223033342 0.0184950585 3.78608191e-23)
(-0.0213934976 0.017389457 -1.81021224e-21)
(-0.0212777594 0.0170238933 0)
(-0.0220607574 0.0174612905 4.21691622e-18)
(-0.0237553326 0.0186676123 -6.48685551e-22)
(-0.0262086339 0.0204906758 -4.56517771e-21)
(-0.0289344558 0.0224266077 4.71485753e-21)
(-0.0316125645 0.0239440379 0)
(-0.0341530455 0.0248202088 0)
(-0.0363296309 0.0247907858 0)
(-0.037983842 0.0237014187 0)
(-0.0392928129 0.0216978713 -6.38807936e-18)
(-0.0404771101 0.0191422988 -6.71254239e-18)
(-0.0414164924 0.0161594215 1.38377933e-20)
(-0.042169055 0.0128697306 -1.46449516e-20)
(-0.0431107528 0.00943235467 7.5391538e-18)
(-0.0445951606 0.006005475 3.80939083e-18)
(-0.0516608313 0.00324333974 1.46896375e-20)
(-0.0655447988 0.00187490741 3.52723573e-24)
(-0.0784846947 0.00158898284 0)
(-0.0886094935 0.00132204615 0)
(-0.0971428611 0.00111167374 0)
(-0.104147897 0.000933897667 0)
(-0.109942619 0.000782096092 0)
(-0.114662352 0.000648614731 0)
(-0.118432075 0.000527440456 0)
(-0.121328545 0.000415480361 0)
(-0.12341939 0.00031114642 0)
(-0.124762048 0.000213885001 8.82241521e-21)
(-0.125409186 0.000122897751 -8.80461625e-21)
(-0.125407418 3.77358279e-05 9.42017164e-21)
(-0.124802659 -4.16423671e-05 -9.40063952e-21)
(-0.123641176 -0.000115248046 0)
(-0.121966449 -0.000183258639 0)
(-0.119820444 -0.000245770415 1.07318581e-20)
(-0.117243956 -0.000302898383 3.53367436e-22)
(-0.114276357 -0.000354797848 -1.10974772e-20)
(-0.110955463 -0.000401653463 0)
(-0.107317448 -0.000443667891 0)
(-0.103396848 -0.00048104731 0)
(-0.0992267339 -0.000513969174 0)
(-0.0948390147 -0.000542573522 0)
(-0.0902647361 -0.000566959553 6.89143656e-21)
(-0.0855344327 -0.000587173352 -6.91900788e-21)
(-0.0806785087 -0.000603214778 -3.6476128e-21)
(-0.0757274852 -0.000615059504 -8.4593875e-23)
(-0.070711922 -0.000622724061 -8.32508882e-23)
(-0.0656618208 -0.000626342431 3.87087725e-21)
(-0.0606052837 -0.000626273366 0)
(-0.05556679 -0.000623086008 0)
(-0.0505663283 -0.000617395454 0)
(-0.045619646 -0.000609683211 0)
(-0.0407411651 -0.000599974416 4.45570539e-21)
(-0.0359458144 -0.000588247798 7.21716886e-23)
(-0.0312492499 -0.000574504963 -4.58130328e-21)
(-0.0266647148 -0.000559291353 0)
(-0.0222017551 -0.000542982125 -9.68774283e-21)
(-0.0178674527 -0.000525938888 9.74473596e-21)
(-0.0136672701 -0.000508202406 -1.00622797e-20)
(-0.00960777255 -0.000489558626 -1.25511145e-22)
(-0.00569778665 -0.000469870642 -1.0549271e-20)
(-0.00194637073 -0.000449278499 2.096974e-20)
(0.00164006005 -0.000428103128 0)
(0.00505857936 -0.000406777766 0)
(0.00830894562 -0.000385548507 2.18207287e-20)
(0.0113911419 -0.000364269396 2.14442943e-22)
(0.0143030712 -0.000342561581 -2.19452019e-20)
(0.0170386165 -0.000319858288 -2.2319956e-20)
(0.0195879585 -0.000295624963 2.22879626e-20)
(0.0219361025 -0.000269040489 -2.26554383e-20)
(0.0240617391 -0.000239100756 -1.90276582e-22)
(0.0259335069 -0.000204408815 2.2819368e-20)
(0.0275108967 -0.000163458975 4.6386065e-20)
(0.0287360519 -0.000114082052 3.63905742e-22)
(0.0295415508 -5.46612521e-05 -4.68524093e-20)
(0.0298327743 1.68401484e-05 0)
(0.0295231809 0.000100811524 -4.81128205e-20)
(0.0284607531 0.000202955892 4.82168866e-20)
(0.0265793639 0.000318745291 4.9112733e-20)
(0.0235926428 0.000458171524 -4.93234041e-20)
(0.0196155431 0.000599193427 0)
(0.0140078301 0.000858173275 0)
(0.00619858966 0.0010106204 1.66245924e-18)
(0.00302260809 0.000481852051 1.34810287e-17)
(0.0040390485 0.000697030389 5.22359699e-20)
(0.00623419352 0.00148460577 -1.31630634e-17)
(0.00993712188 0.00328194906 -3.62168338e-21)
(0.0144750147 0.00607776653 0)
(0.0200196867 0.010045788 0)
(0.0274177771 0.0157030056 4.44735997e-20)
(0.0370876846 0.0234022548 -4.21266347e-20)
(0.049201461 0.0332732917 3.92619174e-20)
(0.0634467833 0.045064608 1.96996603e-17)
(0.0791257799 0.0580251609 -1.88363452e-17)
(0.0943205993 0.0704980385 0)
(0.107754778 0.081791349 -1.65550756e-20)
(0.119989105 0.0926386461 1.5916361e-20)
(0.131937859 0.103866026 0)
(0.144743301 0.116453555 1.40047988e-17)
(0.160243604 0.131922269 0)
(0.182932021 0.152843506 1.12646634e-17)
(0.215869032 0.178116845 -1.08324488e-21)
(0.259483763 0.204152586 1.0359625e-21)
(0.318612221 0.228578704 5.71366856e-18)
(0.394404234 0.241673516 3.20443811e-18)
(0.475565367 0.221754736 -7.52120852e-19)
(0.492899596 0.14336146 -1.12677964e-18)
(0.405838703 0.0596496896 0)
(0.26431352 0.0145851359 -1.34375094e-19)
(0.168499457 0.00284878261 4.62657886e-23)
(0.228902456 0.000822283931 8.46257561e-24)
(0.225271855 -0.00380851975 -8.50981852e-24)
(0.171965418 -0.012890355 1.856629e-19)
(0.0551617382 -0.00609580424 0)
(-0.0365163243 0.0217888026 -2.14393927e-18)
(-0.0560629193 0.0348755746 -2.4935841e-18)
(-0.0459560053 0.032728213 0)
(-0.0405902216 0.0319624453 0)
(-0.0365574456 0.0302394303 3.07115837e-18)
(-0.0334414606 0.0279539486 -3.32659695e-18)
(-0.0308641103 0.0254315831 3.59943264e-18)
(-0.0297025665 0.0240482002 -1.86916518e-21)
(-0.0296208343 0.0236673605 0)
(-0.0307408606 0.0243675846 -4.34230766e-18)
(-0.0330684978 0.0260842927 -4.55800009e-18)
(-0.0363747756 0.0285776376 4.68195528e-21)
(-0.0400338459 0.0311767432 -4.98796562e-18)
(-0.0436355968 0.0331892384 -5.20920529e-18)
(-0.0470555299 0.0343132971 5.48531988e-18)
(-0.0500303166 0.0342214394 -5.77187296e-18)
(-0.0524055673 0.0327496821 0)
(-0.0544210929 0.0300885579 6.42556547e-18)
(-0.0563385791 0.0266754803 1.3122174e-20)
(-0.0580422292 0.0226751415 -7.06150898e-18)
(-0.0596338377 0.0182438853 -3.64277749e-18)
(-0.0616230408 0.0136022002 -3.77403794e-18)
(-0.064953117 0.00908332878 -1.87009954e-18)
(-0.0750739409 0.00539154067 4.57504915e-19)
(-0.0923952702 0.00351385848 -3.39298019e-24)
(-0.108071984 0.00296612871 -1.38815347e-20)
(-0.120188612 0.00243947114 1.36413658e-20)
(-0.130152931 0.00202884667 0)
(-0.138147032 0.0016827191 0)
(-0.144574862 0.00138849514 -1.4251502e-20)
(-0.149626571 0.00112991858 1.40686692e-20)
(-0.153468091 0.000896035394 -1.47614339e-20)
(-0.156208512 0.000680845698 1.46007246e-20)
(-0.157943168 0.000481320243 0)
(-0.158753178 0.000296029341 0)
(-0.158711181 0.000123253641 0)
(-0.157880568 -3.76043789e-05 0)
(-0.156326892 -0.000186547607 8.55836271e-21)
(-0.154113238 -0.000324021712 -8.49540219e-21)
(-0.151296516 -0.000450576719 -9.03482185e-21)
(-0.147931033 -0.000566526112 1.82783914e-20)
(-0.144068664 -0.000672200721 -9.25181092e-21)
(-0.139758704 -0.00076798423 0)
(-0.13504787 -0.000854291752 0)
(-0.129980351 -0.00093154971 0)
(-0.124597947 -0.00100016875 0)
(-0.118940384 -0.00106049268 -5.50730939e-21)
(-0.113045727 -0.00111278517 -1.25708338e-15)
(-0.106950788 -0.00115722563 -1.29895686e-15)
(-0.100691565 -0.00119389169 -5.84018772e-21)
(-0.0943036943 -0.00122277756 -6.15262843e-21)
(-0.0878227176 -0.00124384284 6.17861025e-21)
(-0.0812839617 -0.00125713566 0)
(-0.0747218171 -0.00126293898 0)
(-0.0681682035 -0.00126194812 0)
(-0.0616507043 -0.00125522514 0)
(-0.0551917155 -0.0012438905 0)
(-0.0488089337 -0.00122876305 0)
(-0.0425188057 -0.00120986351 0)
(-0.0363385265 -0.00118711465 0)
(-0.0302861943 -0.00116056557 0)
(-0.0243771153 -0.0011311799 0)
(-0.0186225897 -0.00109966156 -8.30543654e-21)
(-0.0130312075 -0.001066655 1.90598834e-15)
(-0.00760983885 -0.00103227764 1.94008124e-15)
(-0.00236667027 -0.000996112123 -8.75918168e-21)
(0.0026875426 -0.000957604259 1.8018746e-20)
(0.00754176075 -0.000917053805 -1.80052709e-20)
(0.0121880824 -0.000875288865 1.84044112e-20)
(0.0166224627 -0.000833098237 -1.84035157e-20)
(0.020843846 -0.000790958227 0)
(0.0248512993 -0.000748586152 1.89890057e-20)
(0.0286413298 -0.000705233772 -1.90059913e-20)
(0.0322056205 -0.000659835356 0)
(0.0355312662 -0.000611334911 0)
(0.0385989941 -0.000558168397 0)
(0.0413816043 -0.000498368318 0)
(0.0438395567 -0.000429273823 0)
(0.0459213686 -0.00034787884 0)
(0.0475543608 -0.000250103542 0)
(0.0486520565 -0.000132407264 -4.21676709e-20)
(0.0490936243 9.69960087e-06 8.5369249e-20)
(0.0487508312 0.000177964995 -8.6633027e-20)
(0.0474361837 0.000380666504 4.38545777e-20)
(0.0450389903 0.000614422856 0)
(0.0412004821 0.000892719235 0)
(0.0359734975 0.00119195844 0)
(0.0285309377 0.00167739866 -4.81752221e-20)
(0.0186153993 0.00215797525 -3.11157534e-18)
(0.0145751677 0.0020445059 -6.39515736e-18)
(0.0157559404 0.00302791074 1.26618307e-17)
(0.0186028289 0.00482827439 4.85745995e-20)
(0.0231932003 0.00785536295 4.79349155e-17)
(0.0288636786 0.0121099882 -4.54069681e-20)
(0.0358875091 0.0177932062 4.31451352e-20)
(0.0453074906 0.0254919154 2.1174348e-17)
(0.0575975742 0.0356050914 -2.01015161e-17)
(0.072877375 0.0482620775 -1.91722805e-17)
(0.0906866988 0.063151304 -3.56051508e-20)
(0.110171167 0.0794004346 4.48867192e-20)
(0.129219268 0.0952134422 -1.63102033e-20)
(0.146419894 0.109841801 3.14510755e-20)
(0.162302209 0.124041264 -1.53549735e-17)
(0.177909767 0.138753653 1.3909968e-20)
(0.194623898 0.155137815 -1.34457082e-17)
(0.214694117 0.174958016 -5.78662505e-21)
(0.243362927 0.20095433 5.44968451e-21)
(0.284450904 0.231686196 1.03572301e-21)
(0.338782802 0.262849913 -9.84733999e-22)
(0.41139001 0.290748726 0)
(0.503072127 0.303628085 0)
(0.601897943 0.277581622 -1.1092211e-20)
(0.637089536 0.186170692 1.06207369e-18)
(0.555686363 0.0852416874 0)
(0.394302844 0.0251115822 1.26519148e-19)
(0.269008153 0.00630349612 0)
(0.32246506 0.00250383573 0)
(0.307908605 -0.00408562409 3.36956095e-20)
(0.241819193 -0.0160088973 2.19193847e-21)
(0.0979797276 -0.0110689098 2.16759473e-22)
(-0.0293760638 0.0226428545 2.13203713e-18)
(-0.065867034 0.0414581652 2.5536445e-18)
(-0.0568605768 0.0400736885 0)
(-0.0505234413 0.0394133574 0)
(-0.0457689025 0.0375515452 3.15917709e-18)
(-0.0421250317 0.0349446162 3.42609304e-18)
(-0.0391341647 0.0320461202 -3.71421707e-18)
(-0.0378022715 0.0304907104 0)
(-0.037805989 0.0301735209 -4.23255783e-18)
(-0.0392757527 0.0311843998 9.18008577e-22)
(-0.0422028232 0.0334180283 -4.66761021e-18)
(-0.0462780324 0.0365369949 4.86251774e-18)
(-0.0507647769 0.039724424 1.26117183e-21)
(-0.0551858144 0.0421559768 5.28396823e-18)
(-0.0593893657 0.0434637516 -5.53070831e-18)
(-0.0631048098 0.0432838932 1.44230662e-20)
(-0.0662109135 0.0414649854 -1.18112573e-20)
(-0.0690038342 0.0382302925 0)
(-0.0717688086 0.0340618115 6.66040367e-18)
(-0.07441438 0.0291574413 6.90184335e-18)
(-0.0770943592 0.0237046113 0)
(-0.0804553347 0.0179969403 -3.59440815e-18)
(-0.0858921779 0.0125044063 1.3994576e-20)
(-0.0984735786 0.00789257555 -4.41507315e-19)
(-0.117566323 0.00547379313 1.56296851e-24)
(-0.134187757 0.00457727401 -1.25848263e-20)
(-0.146718849 0.00371422335 2.45405392e-20)
(-0.156669037 0.00304586331 -1.1978025e-20)
(-0.164358663 0.00248695164 1.21467109e-20)
(-0.170260879 0.00201476507 -1.17933159e-20)
(-0.174616884 0.0016015219 1.2127812e-20)
(-0.177628838 0.00122983853 3.70529704e-22)
(-0.179436309 0.000889810599 -1.18842299e-20)
(-0.180159612 0.000576258725 0)
(-0.179900034 0.000286260273 0)
(-0.178745441 1.70579559e-05 -1.27291929e-20)
(-0.176776596 -0.000232213662 1.24707028e-20)
(-0.174071777 -0.000462225429 0)
(-0.170697282 -0.000674034002 -6.67275954e-21)
(-0.16671595 -0.000868545667 6.57461132e-21)
(-0.16218689 -0.00104636427 0)
(-0.157165651 -0.0012081081 -7.08391753e-21)
(-0.151704283 -0.00135444717 7.01478123e-21)
(-0.145851548 -0.00148607212 0)
(-0.139653157 -0.0016036681 0)
(-0.133152057 -0.00170787676 0)
(-0.126388857 -0.0017992291 3.97035956e-21)
(-0.11940231 -0.00187812976 9.06865179e-16)
(-0.112229774 -0.0019448534 9.25353017e-16)
(-0.104907684 -0.00199952374 4.16533304e-21)
(-0.097472014 -0.00204214547 0)
(-0.0899585484 -0.00207268431 0)
(-0.0824027497 -0.00209125227 0)
(-0.0748390347 -0.00209832979 0)
(-0.0672992432 -0.00209501316 0)
(-0.0598107982 -0.00208292928 0)
(-0.0523958825 -0.00206377127 0)
(-0.0450719526 -0.00203872427 0)
(-0.0378553238 -0.00200780566 2.67256372e-21)
(-0.0307632231 -0.00197085868 -2.69624703e-21)
(-0.023814035 -0.00192799295 0)
(-0.0170235123 -0.00188061562 0)
(-0.0104035897 -0.00182981231 0)
(-0.00396357867 -0.00177655364 -1.35050297e-15)
(0.00228902434 -0.00172078972 -1.38477757e-15)
(0.00834515039 -0.00166182997 -6.18705298e-21)
(0.0141934846 -0.00159904674 -1.27161952e-20)
(0.0198220492 -0.00153292985 1.27625781e-20)
(0.0252220287 -0.00146484753 0)
(0.0303883469 -0.00139598026 1.33042877e-20)
(0.0353188725 -0.0013269774 -2.6878198e-20)
(0.0400115954 -0.00125740787 -1.33822267e-22)
(0.0444618467 -0.00118609887 -1.31335053e-22)
(0.0486599366 -0.00111140524 1.40143147e-20)
(0.0525912078 -0.00103163935 2.87369316e-20)
(0.0562342238 -0.000944354966 -2.8956021e-20)
(0.0595589178 -0.000846408952 0)
(0.062522037 -0.000733607413 0)
(0.0650668496 -0.000601058824 3.08047594e-20)
(0.0671139584 -0.000442334646 -6.26294358e-20)
(0.0685671432 -0.000251256081 3.18993897e-20)
(0.0692921666 -1.95313633e-05 3.2956828e-20)
(0.0691294385 0.000256910291 -3.35325334e-20)
(0.0678705173 0.00058890679 0)
(0.0653620418 0.00097682306 0)
(0.061200885 0.00143847079 0)
(0.0553390406 0.00195605663 0)
(0.0468354183 0.00271664006 -1.28661799e-28)
(0.0357619111 0.00363641891 1.29982098e-18)
(0.0310785858 0.00425403468 4.22667184e-20)
(0.0321255132 0.00627531165 -1.05849956e-17)
(0.0352573919 0.00932143336 0)
(0.0402622439 0.0137085266 -3.93693366e-17)
(0.0465730873 0.0194444965 0)
(0.0545437408 0.0267339419 0)
(0.0653003495 0.0361551896 -1.72706921e-17)
(0.0793315502 0.0481186962 1.64028225e-17)
(0.0966673257 0.0627508421 3.05229085e-20)
(0.116734366 0.0797281201 -1.49505469e-17)
(0.138616195 0.0981620471 1.44141208e-17)
(0.160276404 0.116352697 0)
(0.180320812 0.133596038 0)
(0.199183332 0.150589522 1.327478e-17)
(0.217902605 0.168268129 -3.41281133e-22)
(0.237947813 0.187832737 1.19322678e-17)
(0.26175531 0.211075381 1.09208218e-17)
(0.294804952 0.240509939 4.88818411e-21)
(0.341396935 0.274364855 -8.20214673e-18)
(0.402661587 0.307872535 6.52235902e-18)
(0.483202652 0.336093007 4.62486372e-18)
(0.583144338 0.346107979 2.50905005e-18)
(0.691113282 0.31421379 3.0755812e-19)
(0.743600633 0.216998284 2.42052017e-22)
(0.68206773 0.10789088 -2.46636841e-22)
(0.522920879 0.0370568722 -1.1139058e-19)
(0.380955377 0.0113914249 0)
(0.420969422 0.00553789753 -7.77891675e-24)
(0.394401725 -0.00331546107 -3.03836585e-20)
(0.317916159 -0.0184048168 -1.63734383e-19)
(0.151961296 -0.0168837779 -2.02427273e-22)
(-0.0123176247 0.0208990372 -4.16822357e-18)
(-0.07171588 0.0463642597 -2.60251099e-18)
(-0.0663020661 0.0463560338 2.7746214e-18)
(-0.0594578335 0.0459596406 -2.99755453e-18)
(-0.0542228954 0.0441377238 -3.24425477e-18)
(-0.0502549955 0.0413859006 -7.03499096e-18)
(-0.0470213426 0.0382799164 1.83736623e-21)
(-0.0456134964 0.0366650496 -4.02778589e-21)
(-0.0457558373 0.0364896589 4.3420975e-18)
(-0.047581139 0.0378508802 9.11249969e-18)
(-0.0510585513 0.0405926461 4.74618373e-18)
(-0.0557985945 0.0442750887 -4.9217611e-18)
(-0.0609823295 0.0479576254 1.383623e-21)
(-0.0660873956 0.050713118 1.04081714e-20)
(-0.0709443976 0.0521244211 1.6212831e-22)
(-0.0753006364 0.051817556 1.14099422e-17)
(-0.0790855373 0.0496693475 0)
(-0.0826386052 0.0459237596 -6.12123186e-18)
(-0.08625214 0.0410854744 -6.31952956e-18)
(-0.089871513 0.0353839134 0)
(-0.0937068709 0.029039925 0)
(-0.0985002309 0.0224180063 3.27616714e-18)
(-0.105796427 0.0160510327 6.34396304e-23)
(-0.11972955 0.0105380815 3.54581981e-19)
(-0.138644671 0.00754597614 1.10525421e-20)
(-0.154267627 0.00621897763 0)
(-0.165643497 0.00496855773 -1.01613285e-20)
(-0.174317628 0.00400927375 9.60384491e-21)
(-0.180718409 0.00321523566 0)
(-0.185345477 0.00254849791 9.31956462e-21)
(-0.18845899 0.00196744918 -8.90229794e-21)
(-0.190269123 0.00144746856 0)
(-0.19092182 0.000974335797 0)
(-0.190540698 0.000540488198 0)
(-0.189228582 0.000141339925 0)
(-0.187073992 -0.000226869888 8.98515449e-21)
(-0.184159273 -0.000566046239 -8.72201303e-21)
(-0.180551909 -0.00087786384 -9.09996403e-21)
(-0.176313855 -0.00116387606 1.34841781e-20)
(-0.171505029 -0.00142537301 -4.50097482e-21)
(-0.166181702 -0.0016633746 0)
(-0.16039667 -0.00187891258 0)
(-0.154199361 -0.00207305797 0)
(-0.147636087 -0.0022468777 0)
(-0.140750322 -0.00240140366 0)
(-0.133582986 -0.00253758549 0)
(-0.126172857 -0.00265621022 5.26894894e-21)
(-0.11855703 -0.00275788596 -5.23849945e-21)
(-0.110771331 -0.00284303948 0)
(-0.102850757 -0.00291189337 0)
(-0.0948298957 -0.00296451065 0)
(-0.0867431762 -0.00300090505 -1.46998745e-21)
(-0.0786247507 -0.00302128395 1.47194169e-21)
(-0.0705078247 -0.00302634432 0)
(-0.0624232099 -0.00301758779 0)
(-0.0543975356 -0.00299720136 0)
(-0.04645237 -0.00296745146 0)
(-0.0386045755 -0.00292988692 0)
(-0.0308697778 -0.00288452958 0)
(-0.0232644906 -0.00283111948 1.78007781e-21)
(-0.0158065929 -0.00276980549 -1.79646666e-21)
(-0.00851174254 -0.00270238795 0)
(-0.00139209555 -0.00263027594 0)
(0.00554267691 -0.00255463511 0)
(0.0122846759 -0.00247539811 0)
(0.0188247136 -0.00239175536 0)
(0.0251516636 -0.00230304633 8.24140888e-21)
(0.0312535088 -0.00220987999 9.49985575e-23)
(0.0371210249 -0.00211392498 -8.45469514e-21)
(0.0427484572 -0.00201673244 0)
(0.0481328482 -0.00191913437 0)
(0.0532714659 -0.00182055794 0)
(0.0581590894 -0.00171940487 0)
(0.0627856896 -0.00161344176 1.87755604e-20)
(0.0671363168 -0.00150031837 -3.81242149e-20)
(0.0711894379 -0.00137667611 1.93688102e-20)
(0.0749149843 -0.00123813509 -1.99501067e-20)
(0.0782700403 -0.0010788916 2.02282492e-20)
(0.0811980931 -0.000892025629 0)
(0.0836206433 -0.000668611726 0)
(0.0854417231 -0.000399451197 2.2020596e-20)
(0.0865277182 -7.18711851e-05 -2.25458684e-20)
(0.0867184201 0.000321627427 0)
(0.0857972599 0.000795166754 2.43712219e-20)
(0.083589261 0.00135521472 -2.52193805e-20)
(0.0796872002 0.00202575846 0)
(0.0739581221 0.00280195046 -2.81856611e-20)
(0.0654576026 0.00387284423 2.98573492e-20)
(0.05430451 0.00527623605 -3.17507117e-20)
(0.0490878255 0.00672331416 3.14666271e-20)
(0.0496324656 0.00976686148 0)
(0.0525972648 0.0139740737 -7.43337694e-18)
(0.0575831146 0.019571054 1.42432272e-17)
(0.0641111742 0.0265627752 1.37530393e-17)
(0.0725654438 0.0351348638 2.57685398e-20)
(0.084053928 0.0458043544 1.83067334e-22)
(0.0990507623 0.0589785982 1.33770455e-22)
(0.11748642 0.0747902204 1.12534693e-17)
(0.138714645 0.0929393374 9.59005602e-21)
(0.161822573 0.112585569 2.07231927e-20)