/*--------------------------------*- C++ -*----------------------------------*\
| =========                 |                                                 |
| \\      /  F ield         | OpenFOAM: The Open Source CFD Toolbox           |
|  \\    /   O peration     | Version:  2506                                  |
|   \\  /    A nd           | Website:  www.openfoam.com                      |
|    \\/     M anipulation  |                                                 |
\*---------------------------------------------------------------------------*/
FoamFile
{
    version     2.0;
    format      ascii;
    arch        "LSB;label=32;scalar=64";
    class       volVectorField;
    location    "2644";
    object      wallShearStress;
}
// * * * * * * * * * * * * * * * * * * * * * * * * * * * * * * * * * * * * * //

dimensions      [0 2 -2 0 0 0 0];

internalField   uniform (0 0 0);

boundaryField
{
    bottomWall
    {
        type            calculated;
        value           nonuniform List<vector> 
120
(
(-0.00413260763 1.11406891e-05 1.02441729e-24)
(-0.00475386133 0.000119911993 4.16661127e-21)
(-0.00311811061 0.000348132846 0)
(0.000319416435 -4.85445934e-05 9.38198534e-20)
(0.00209457222 -0.000895870931 1.02642542e-23)
(0.0020060664 -0.00117346804 2.60871854e-22)
(0.00148035164 -0.00103412374 3.24273386e-19)
(0.00128043776 -0.000980470133 -3.42190599e-19)
(0.0010988753 -0.000883920487 1.00169525e-16)
(0.000943551631 -0.000769433084 1.03435861e-16)
(0.000805944246 -0.000651235755 -9.50884981e-23)
(0.000725408317 -0.000576960086 1.86077387e-22)
(0.000680763899 -0.000534844889 -1.92098105e-22)
(0.000671622832 -0.000522719773 3.95692064e-19)
(0.000694496097 -0.000536237646 4.00993822e-19)
(0.000742723142 -0.00056901772 3.98542143e-22)
(0.000796787541 -0.000603481628 4.09722074e-19)
(0.000842156979 -0.000622069943 -8.31924371e-19)
(0.000876483302 -0.000620481772 4.21385268e-19)
(0.000892872322 -0.000593837499 4.30232815e-19)
(0.000886763685 -0.000540899556 -4.36650849e-19)
(0.000866081177 -0.0004697546 4.42686075e-19)
(0.000843251668 -0.000393954295 1.13282827e-23)
(0.00081684631 -0.000317169521 1.02886364e-23)
(0.00078867404 -0.000241623099 -2.29008107e-19)
(0.000770232551 -0.000169962426 0)
(0.000742283922 -9.88025038e-05 3.36918027e-17)
(0.000845187393 -4.52240882e-05 3.43980433e-17)
(0.00115484716 -2.09838255e-05 -1.10679348e-25)
(0.0014585411 -1.94873433e-05 -3.32810898e-33)
(0.00169798826 -1.8421571e-05 0)
(0.00190762606 -1.76045322e-05 4.05509824e-17)
(0.00208461281 -1.68930913e-05 4.20070421e-17)
(0.00223619395 -1.62298177e-05 0)
(0.00236468855 -1.55879136e-05 -1.04807062e-53)
(0.00247272063 -1.49143356e-05 -7.21597443e-52)
(0.00256163915 -1.41909123e-05 -0)
(0.00263267261 -1.34088154e-05 5.66451057e-22)
(0.00268685444 -1.25757434e-05 -4.77092157e-17)
(0.00272518798 -1.16945235e-05 -4.98815756e-17)
(0.00274855966 -1.07708511e-05 6.06174876e-22)
(0.00275784783 -9.80890604e-06 6.49507564e-22)
(0.00275392126 -8.81724707e-06 -6.49503465e-22)
(0.0027376426 -7.80652261e-06 6.95205001e-22)
(0.00270988254 -6.78621028e-06 -6.9531845e-22)
(0.00267151323 -5.76493393e-06 -0)
(0.00262339677 -4.75048612e-06 6.51289103e-17)
(0.00256637739 -3.74984776e-06 6.76530934e-17)
(0.00250127564 -2.76922812e-06 8.03303846e-22)
(0.00242888385 -1.81408238e-06 -4.07852224e-22)
(0.00234996727 -8.8956292e-07 4.31896525e-22)
(0.0022652699 -6.06127006e-10 -8.7609399e-22)
(0.00217552049 8.48011669e-07 7.48452101e-17)
(0.00208144042 1.65151102e-06 7.70855388e-17)
(0.00198375352 2.40509649e-06 2.33991796e-22)
(0.00188319404 3.10409853e-06 5.47127853e-42)
(0.00178050717 3.7446472e-06 -1.44528812e-32)
(0.00167643769 4.32440352e-06 1.28244168e-22)
(0.00157169751 4.84411415e-06 -1.93818549e-22)
(0.00146691624 5.30781945e-06 6.55240421e-23)
(0.00136261292 5.72108476e-06 0)
(0.00125918751 6.0896216e-06 -1.38668568e-22)
(0.00115699522 6.41366805e-06 1.38779076e-22)
(0.00105639881 6.69365414e-06 -1.65756441e-32)
(0.000957786239 6.92892453e-06 -0)
(0.000861489787 7.12685604e-06 2.96173665e-22)
(0.000767739585 7.29211846e-06 -2.96392689e-22)
(0.000676699674 7.43034475e-06 -0)
(0.0005884847 7.54245971e-06 0)
(0.000503237063 7.62750985e-06 0)
(0.000421155867 7.68458659e-06 0)
(0.000342457045 7.71662862e-06 0)
(0.000267290039 7.73141084e-06 -1.07887852e-16)
(0.000195714111 7.73487769e-06 -2.17555529e-16)
(0.000127715368 7.73057589e-06 -1.09573088e-16)
(6.32667819e-05 7.71831028e-06 2.66796968e-21)
(2.3879253e-06 7.69479142e-06 -1.34090789e-21)
(-5.48066724e-05 7.65513227e-06 1.36589293e-21)
(-0.000108119083 7.59674756e-06 -1.36535084e-21)
(-0.000157235068 7.51399363e-06 -1.15763072e-16)
(-0.000201702237 7.40061951e-06 -1.15562519e-16)
(-0.000240838585 7.24635773e-06 1.39976498e-21)
(-0.0002737774 7.0433666e-06 -1.42218723e-21)
(-0.000299248417 6.77536921e-06 2.85506284e-21)
(-0.000315832561 6.4411519e-06 -1.432984e-21)
(-0.000321506768 6.03076188e-06 2.91015772e-21)
(-0.000314893851 5.56301365e-06 -5.84248573e-21)
(-0.000292545848 4.95609059e-06 2.93263892e-21)
(-0.000253932639 4.34516164e-06 2.97836667e-21)
(-0.000192502003 3.53356976e-06 -5.98226362e-21)
(-0.000113955001 3.01201274e-06 3.00444561e-21)
(-5.00174424e-06 9.44131847e-07 3.7114644e-25)
(0.000162808751 4.88561409e-06 0)
(0.000232022984 2.82517398e-05 -3.10560221e-21)
(0.000211812912 3.89648237e-05 8.04899503e-19)
(0.000173393299 4.04940068e-05 2.84092779e-23)
(9.28257121e-05 1.852714e-05 1.62170826e-18)
(-1.35119749e-05 -2.87037641e-05 1.6464557e-18)
(-0.000153184651 -0.000109434938 -1.65699651e-18)
(-0.000356956927 -0.000243643924 1.66970265e-18)
(-0.000648723662 -0.000449703475 -1.68049787e-18)
(-0.00104819225 -0.00074103015 -1.68793745e-18)
(-0.00155893276 -0.00111929415 -1.08333559e-34)
(-0.00216357255 -0.00156621381 -1.50463277e-36)
(-0.00278029772 -0.00202140326 1.67070722e-18)
(-0.00335942664 -0.00246081267 1.64960597e-18)
(-0.0039416314 -0.0029203868 1.62200403e-18)
(-0.0045732098 -0.00343850542 1.58607244e-18)
(-0.00531627401 -0.00406551631 1.5402303e-18)
(-0.00627981509 -0.0048874982 -1.4780576e-18)
(-0.00772573559 -0.00605419086 -1.3899248e-18)
(-0.00976595446 -0.00749886259 1.25845281e-18)
(-0.0123418629 -0.00900413404 -1.06885729e-18)
(-0.0156943339 -0.0104221233 -8.13781439e-19)
(-0.0196458397 -0.0111499213 4.69771848e-19)
(-0.0229987106 -0.00994300117 1.88079096e-37)
(-0.0213515237 -0.00576801808 1.55060534e-19)
(-0.0147715316 -0.0019981255 9.40395481e-38)
(-0.00765716443 -0.000348251695 -1.75774715e-20)
(-0.00411224405 -3.11870491e-05 0)
)
;
    }
    topWall
    {
        type            calculated;
        value           nonuniform List<vector> 
120
(
(-0.00740386353 9.99788953e-07 0)
(-0.00737888847 1.24938692e-06 0)
(-0.00734586766 1.47599416e-06 0)
(-0.00730549776 1.68238024e-06 0)
(-0.00725839366 1.86915524e-06 0)
(-0.00720516321 2.03753242e-06 0)
(-0.00714636235 2.18639325e-06 0)
(-0.00708272928 2.30978442e-06 0)
(-0.00701501883 2.41414825e-06 0)
(-0.00694380172 2.50271676e-06 0)
(-0.00686955663 2.57718833e-06 0)
(-0.00679279484 2.63323936e-06 0)
(-0.00671419284 2.66933069e-06 0)
(-0.00663434185 2.69381392e-06 0)
(-0.0065535199 2.71026253e-06 0)
(-0.00647217038 2.70855218e-06 0)
(-0.00639090562 2.69443891e-06 0)
(-0.00631001017 2.67592395e-06 0)
(-0.00622968755 2.64746695e-06 0)
(-0.00615039043 2.60656987e-06 0)
(-0.00607239749 2.56440701e-06 0)
(-0.00599569628 2.51966255e-06 0)
(-0.00592054157 2.46477705e-06 0)
(-0.00584715205 2.41173848e-06 0)
(-0.00577531365 2.36304314e-06 0)
(-0.00570510478 2.30566583e-06 0)
(-0.00563673056 2.25099827e-06 0)
(-0.00556988945 2.20481837e-06 0)
(-0.00550451747 2.15232644e-06 0)
(-0.00544080084 2.0999635e-06 0)
(-0.00537857936 2.05453073e-06 0)
(-0.00531765534 2.01016684e-06 0)
(-0.00525808737 1.96292787e-06 0)
(-0.00519987955 1.91972388e-06 0)
(-0.00514284971 1.87897934e-06 0)
(-0.00508702513 1.83473012e-06 0)
(-0.0050324766 1.79161413e-06 0)
(-0.00497912415 1.75315132e-06 0)
(-0.00492675687 1.71860681e-06 0)
(-0.00487544321 1.67575017e-06 0)
(-0.00482545516 1.62820845e-06 0)
(-0.00477687575 1.58075774e-06 0)
(-0.00472963995 1.53464405e-06 0)
(-0.00468379318 1.48315131e-06 0)
(-0.00463955482 1.42617439e-06 0)
(-0.00459704611 1.36769822e-06 0)
(-0.00455630533 1.31041332e-06 0)
(-0.00451719 1.25704317e-06 0)
(-0.00447974608 1.19470065e-06 0)
(-0.00444435094 1.1240054e-06 0)
(-0.00441108303 1.05702992e-06 0)
(-0.0043797929 9.93308363e-07 0)
(-0.00435042876 9.30732493e-07 0)
(-0.00432299155 8.66410498e-07 0)
(-0.00429763114 7.95975464e-07 0)
(-0.00427454789 7.22129748e-07 0)
(-0.00425380402 6.48879255e-07 0)
(-0.00423534624 5.76116805e-07 0)
(-0.00421928173 4.97280781e-07 0)
(-0.00420577421 4.17154569e-07 0)
(-0.00419479384 3.39479401e-07 0)
(-0.00418626556 2.62743205e-07 0)
(-0.00418024897 1.83155681e-07 0)
(-0.00417683965 1.03406808e-07 0)
(-0.00417600106 2.38350612e-08 0)
(-0.00417785475 -6.19093849e-08 0)
(-0.00418256281 -1.48927347e-07 0)
(-0.00419012541 -2.34955245e-07 0)
(-0.00420049263 -3.19075043e-07 0)
(-0.00421364271 -4.04607187e-07 0)
(-0.00422970708 -4.93640011e-07 0)
(-0.00424872794 -5.81469416e-07 0)
(-0.00427070091 -6.69838813e-07 0)
(-0.00429561205 -7.57915268e-07 0)
(-0.00432355442 -8.51077746e-07 0)
(-0.0043546664 -9.44588061e-07 0)
(-0.0043889056 -1.03568646e-06 0)
(-0.00442619779 -1.12635543e-06 0)
(-0.00446661548 -1.22053624e-06 0)
(-0.00451025134 -1.31439258e-06 0)
(-0.00455704089 -1.40528445e-06 0)
(-0.00460691132 -1.49271018e-06 0)
(-0.00465966496 -1.58595474e-06 0)
(-0.00471613291 -1.71499242e-06 0)
(-0.00477710805 -1.84365743e-06 0)
(-0.00484230557 -1.96280668e-06 0)
(-0.00491149116 -2.07693776e-06 0)
(-0.00498453822 -2.18678666e-06 0)
(-0.00506130939 -2.2921911e-06 0)
(-0.00514166349 -2.39309091e-06 0)
(-0.00522545195 -2.48899998e-06 0)
(-0.00531250986 -2.57940052e-06 0)
(-0.00540265601 -2.66372446e-06 0)
(-0.0054956924 -2.74141937e-06 0)
(-0.00559140212 -2.81173191e-06 0)
(-0.00568954387 -2.87380353e-06 0)
(-0.00578984542 -2.92650782e-06 0)
(-0.00589199496 -2.96852315e-06 0)
(-0.00599563403 -2.99827168e-06 0)
(-0.00610035066 -3.01402589e-06 0)
(-0.00620567471 -3.01395344e-06 0)
(-0.00631107452 -2.9961765e-06 0)
(-0.00641595604 -2.95882687e-06 0)
(-0.00651966458 -2.90014109e-06 0)
(-0.00662148903 -2.8185598e-06 0)
(-0.00672066904 -2.71281945e-06 0)
(-0.00681640468 -2.5820352e-06 0)
(-0.00690787121 -2.42580239e-06 0)
(-0.00699423232 -2.24426702e-06 0)
(-0.00707466649 -2.03841048e-06 0)
(-0.00714838073 -1.80850251e-06 0)
(-0.00721455694 -1.55551454e-06 0)
(-0.00727251792 -1.28767423e-06 0)
(-0.0073218249 -1.00873247e-06 0)
(-0.00736204725 -7.18620429e-07 0)
(-0.0073928732 -4.23419296e-07 0)
(-0.00741406606 -1.24029403e-07 0)
(-0.00742557599 1.69977616e-07 0)
(-0.00742755395 4.57669268e-07 0)
(-0.00742020651 7.35091016e-07 0)
)
;
    }
    inlet_half0
    {
        type            cyclic;
    }
    inlet_half1
    {
        type            cyclic;
    }
    outlet_half0
    {
        type            cyclic;
    }
    outlet_half1
    {
        type            cyclic;
    }
    sideRight_half0
    {
        type            empty;
    }
    sideRight_half1
    {
        type            empty;
    }
    sideLeft_half0
    {
        type            empty;
    }
    sideLeft_half1
    {
        type            empty;
    }
}


// ************************************************************************* //
