/*--------------------------------*- C++ -*----------------------------------*\
| =========                 |                                                 |
| \\      /  F ield         | OpenFOAM: The Open Source CFD Toolbox           |
|  \\    /   O peration     | Version:  2412                                  |
|   \\  /    A nd           | Website:  www.openfoam.com                      |
|    \\/     M anipulation  |                                                 |
\*---------------------------------------------------------------------------*/
FoamFile
{
    version     2.0;
    format      ascii;
    arch        "LSB;label=32;scalar=64";
    class       volScalarField;
    location    "2130";
    object      alpha_A;
}
// * * * * * * * * * * * * * * * * * * * * * * * * * * * * * * * * * * * * * //

dimensions      [0 0 0 0 0 0 0];

internalField   nonuniform List<scalar> 
2304
(
8.52071
8.52072
8.52073
8.52075
8.52078
8.52079
8.52081
8.52082
8.52083
8.52084
8.52085
8.52085
8.52086
8.52087
8.52088
8.52089
8.5209
8.52092
8.52094
8.52097
8.521
8.52104
8.5211
8.52116
8.52124
8.52134
8.52144
8.52156
8.52169
8.52182
8.52198
8.52214
8.52233
8.52253
8.52274
8.52297
8.52321
8.52345
8.52369
8.52391
8.52411
8.52429
8.52444
8.52456
8.52465
8.52473
8.52478
8.5248
8.38457
8.38488
8.38543
8.38611
8.38682
8.38748
8.38805
8.3885
8.38884
8.3891
8.38931
8.38951
8.38973
8.39001
8.39034
8.39074
8.39122
8.3918
8.39253
8.39344
8.39459
8.39604
8.39786
8.40011
8.4028
8.40597
8.40958
8.41357
8.4179
8.42264
8.42784
8.43353
8.43976
8.44654
8.45386
8.46168
8.46984
8.47813
8.48627
8.49395
8.50085
8.50681
8.51182
8.51591
8.51915
8.52168
8.5238
8.52478
7.36771
7.36999
7.37399
7.37896
7.38417
7.38907
7.39327
7.39665
7.39925
7.40126
7.40295
7.40462
7.4065
7.40878
7.41154
7.41486
7.41883
7.42363
7.42929
7.43633
7.44522
7.45641
7.4704
7.4876
7.50827
7.53258
7.56045
7.59149
7.62533
7.66259
7.70368
7.74887
7.79846
7.85269
7.9116
7.97486
8.0416
8.1103
8.17872
8.24381
8.30354
8.35607
8.40075
8.43831
8.4713
8.50253
8.52168
8.52473
4.58023
4.58581
4.59557
4.60769
4.6204
4.63231
4.64251
4.65065
4.65687
4.66164
4.66564
4.66963
4.67423
4.67991
4.68697
4.69564
4.70622
4.71915
4.73425
4.75316
4.77709
4.80727
4.84502
4.89147
4.9475
5.01373
5.09049
5.17751
5.27423
5.3825
5.50363
5.63876
5.78919
5.95615
6.14051
6.34241
6.56082
6.79311
7.03431
7.27575
7.5104
7.73012
7.93383
8.13124
8.3271
8.4713
8.51915
8.52465
1.26068
1.26632
1.27615
1.28825
1.30075
1.3122
1.32165
1.32874
1.33365
1.33691
1.33929
1.34162
1.34463
1.34893
1.35496
1.36309
1.37381
1.38764
1.40424
1.42575
1.45357
1.48914
1.53403
1.58964
1.65708
1.73734
1.83155
1.94123
2.06831
2.21378
2.37945
2.56746
2.78004
3.01934
3.28731
3.58586
3.91725
4.2846
4.69203
5.14382
5.64787
6.20689
6.83635
7.52922
8.13124
8.43831
8.51591
8.52456
-0.78733
-0.784149
-0.77884
-0.772636
-0.76674
-0.762088
-0.759259
-0.758421
-0.759406
-0.761791
-0.765009
-0.768446
-0.771501
-0.773607
-0.774251
-0.772903
-0.768988
-0.762018
-0.752335
-0.738024
-0.717981
-0.691196
-0.656532
-0.613018
-0.559944
-0.496667
-0.422076
-0.334111
-0.230056
-0.109334
0.028829
0.18555
0.361242
0.555404
0.767121
0.996535
1.24757
1.53205
1.87589
2.33268
3.00115
3.98643
5.33801
6.83635
7.93383
8.40075
8.51182
8.52444
-1.3779
-1.3779
-1.3779
-1.3779
-1.3779
-1.3779
-1.3779
-1.3779
-1.3779
-1.3779
-1.3779
-1.3779
-1.3779
-1.3779
-1.3779
-1.3779
-1.3779
-1.3779
-1.3779
-1.3779
-1.3779
-1.3779
-1.3779
-1.3779
-1.3779
-1.3779
-1.3779
-1.36704
-1.2839
-1.19136
-1.09126
-0.986352
-0.881183
-0.781739
-0.693812
-0.619907
-0.554274
-0.475271
-0.334364
-0.0358844
0.631986
1.95184
3.98643
6.20689
7.73012
8.35607
8.50681
8.52429
-1.3779
-1.3779
-1.3779
-1.3779
-1.3779
-1.3779
-1.3779
-1.3779
-1.3779
-1.3779
-1.3779
-1.3779
-1.3779
-1.3779
-1.3779
-1.3779
-1.3779
-1.3779
-1.3779
-1.3779
-1.3779
-1.3779
-1.3779
-1.3779
-1.3779
-1.3779
-1.3779
-1.3779
-1.3779
-1.3779
-1.3779
-1.3779
-1.3779
-1.3779
-1.3779
-1.3779
-1.3779
-1.3779
-1.3779
-1.3779
-0.814893
0.631996
3.00116
5.64787
7.5104
8.30354
8.50085
8.52411
-1.3779
-1.3779
-1.3779
-1.3779
-1.3779
-1.3779
-1.3779
-1.3779
-1.3779
-1.3779
-1.3779
-1.3779
-1.3779
-1.3779
-1.3779
-1.3779
-1.3779
-1.3779
-1.3779
-1.3779
-1.3779
-1.3779
-1.3779
-1.3779
-1.3779
-1.3779
-1.3779
-1.3779
-1.3779
-1.3779
-1.3779
-1.3779
-1.3779
-1.3779
-1.3779
-1.3779
-1.3779
-1.3779
-1.3779
-1.3779
-1.3779
-0.0358673
2.33269
5.14383
7.27576
8.24381
8.49395
8.52391
-1.3779
-1.3779
-1.3779
-1.3779
-1.3779
-1.3779
-1.3779
-1.3779
-1.3779
-1.3779
-1.3779
-1.3779
-1.3779
-1.3779
-1.3779
-1.3779
-1.3779
-1.3779
-1.3779
-1.3779
-1.3779
-1.3779
-1.3779
-1.3779
-1.3779
-1.3779
-1.3779
-1.3779
-1.3779
-1.3779
-1.3779
-1.3779
-1.3779
-1.3779
-1.3779
-1.3779
-1.3779
-1.3779
-1.3779
-1.3779
-1.3779
-0.334344
1.87591
4.69205
7.03431
8.17872
8.48627
8.52369
-1.3779
-1.3779
-1.3779
-1.3779
-1.3779
-1.3779
-1.3779
-1.3779
-1.3779
-1.3779
-1.3779
-1.3779
-1.3779
-1.3779
-1.3779
-1.3779
-1.3779
-1.3779
-1.3779
-1.3779
-1.3779
-1.3779
-1.3779
-1.3779
-1.3779
-1.3779
-1.3779
-1.3779
-1.3779
-1.3779
-1.3779
-1.3779
-1.3779
-1.3779
-1.3779
-1.3779
-1.3779
-1.3779
-1.3779
-1.3779
-1.3779
-0.475251
1.53207
4.28461
6.79312
8.1103
8.47813
8.52345
-1.3779
-1.3779
-1.3779
-1.3779
-1.3779
-1.3779
-1.3779
-1.3779
-1.3779
-1.3779
-1.3779
-1.3779
-1.3779
-1.3779
-1.3779
-1.3779
-1.3779
-1.3779
-1.3779
-1.3779
-1.3779
-1.3779
-1.3779
-1.3779
-1.3779
-1.3779
-1.3779
-1.3779
-1.3779
-1.3779
-1.3779
-1.3779
-1.3779
-1.3779
-1.3779
-1.3779
-1.3779
-1.3779
-1.3779
-1.3779
-1.3779
-0.554257
1.24759
3.91725
6.56083
8.0416
8.46984
8.52321
-1.3779
-1.3779
-1.3779
-1.3779
-1.3779
-1.3779
-1.3779
-1.3779
-1.3779
-1.3779
-1.3779
-1.3779
-1.3779
-1.3779
-1.3779
-1.3779
-1.3779
-1.3779
-1.3779
-1.3779
-1.3779
-1.3779
-1.3779
-1.3779
-1.3779
-1.3779
-1.3779
-1.3779
-1.3779
-1.3779
-1.3779
-1.3779
-1.3779
-1.3779
-1.3779
-1.3779
-1.3779
-1.3779
-1.3779
-1.3779
-1.3779
-0.619894
0.996544
3.58586
6.3424
7.97486
8.46168
8.52297
-1.3779
-1.3779
-1.3779
-1.3779
-1.3779
-1.3779
-1.3779
-1.3779
-1.3779
-1.3779
-1.3779
-1.3779
-1.3779
-1.3779
-1.3779
-1.3779
-1.3779
-1.3779
-1.3779
-1.3779
-1.3779
-1.3779
-1.3779
-1.3779
-1.3779
-1.3779
-1.3779
-1.3779
-1.3779
-1.3779
-1.3779
-1.3779
-1.3779
-1.3779
-1.3779
-1.3779
-1.3779
-1.3779
-1.3779
-1.3779
-1.3779
-0.693808
0.767121
3.28731
6.1405
7.9116
8.45386
8.52274
-1.3779
-1.3779
-1.3779
-1.3779
-1.3779
-1.3779
-1.3779
-1.3779
-1.3779
-1.3779
-1.3779
-1.3779
-1.3779
-1.3779
-1.3779
-1.3779
-1.3779
-1.3779
-1.3779
-1.3779
-1.3779
-1.3779
-1.3779
-1.3779
-1.3779
-1.3779
-1.3779
-1.3779
-1.3779
-1.3779
-1.3779
-1.3779
-1.3779
-1.3779
-1.3779
-1.3779
-1.3779
-1.3779
-1.3779
-1.3779
-1.3779
-0.781743
0.555394
3.01933
5.95614
7.85269
8.44654
8.52253
-1.3779
-1.3779
-1.3779
-1.3779
-1.3779
-1.3779
-1.3779
-1.3779
-1.3779
-1.3779
-1.3779
-1.3779
-1.3779
-1.3779
-1.3779
-1.3779
-1.3779
-1.3779
-1.3779
-1.3779
-1.3779
-1.34436
-1.31912
-1.30966
-1.3172
-1.344
-1.3779
-1.3779
-1.3779
-1.3779
-1.3779
-1.3779
-1.3779
-1.3779
-1.3779
-1.3779
-1.3779
-1.3779
-1.3779
-1.3779
-1.3779
-0.881193
0.361222
2.78001
5.78917
7.79846
8.43976
8.52233
-1.3779
-1.3779
-1.3779
-1.3779
-1.3779
-1.3779
-1.3779
-1.3779
-1.3779
-1.3779
-1.3779
-1.3779
-1.3779
-1.3779
-1.3779
-1.3779
-1.3779
-1.3779
-1.3779
-1.32931
-1.28272
-1.25194
-1.23993
-1.244
-1.26237
-1.29241
-1.33225
-1.3779
-1.3779
-1.3779
-1.3779
-1.3779
-1.3779
-1.3779
-1.3779
-1.3779
-1.3779
-1.3779
-1.3779
-1.3779
-1.3779
-0.98637
0.185518
2.56741
5.63873
7.74886
8.43353
8.52214
-1.3779
-1.3779
-1.3779
-1.3779
-1.3779
-1.3779
-1.3779
-1.3779
-1.3779
-1.3779
-1.3779
-1.3779
-1.3779
-1.3779
-1.3779
-1.3779
-1.3779
-1.3413
-1.27672
-1.22593
-1.19171
-1.1708
-1.16809
-1.18236
-1.2109
-1.25009
-1.29373
-1.33889
-1.3779
-1.3779
-1.3779
-1.3779
-1.3779
-1.3779
-1.3779
-1.3779
-1.3779
-1.3779
-1.3779
-1.3779
-1.3779
-1.09129
0.0287837
2.37939
5.50358
7.70366
8.42784
8.52198
-1.3779
-1.3779
-1.3779
-1.3779
-1.3779
-1.3779
-1.3779
-1.3779
-1.3779
-1.3779
-1.3779
-1.3779
-1.3779
-1.3779
-1.3779
-1.37579
-1.29745
-1.22779
-1.17107
-1.12526
-1.09725
-1.08713
-1.09536
-1.11977
-1.15692
-1.20268
-1.25272
-1.3
-1.34542
-1.3779
-1.3779
-1.3779
-1.3779
-1.3779
-1.3779
-1.3779
-1.3779
-1.3779
-1.3779
-1.3779
-1.3779
-1.1914
-0.109395
2.21369
5.38244
7.66257
8.42264
8.52182
-1.3779
-1.3779
-1.3779
-1.3779
-1.3779
-1.3779
-1.3779
-1.3779
-1.3779
-1.3779
-1.3779
-1.3779
-1.3779
-1.3779
-1.34564
-1.25686
-1.17914
-1.11204
-1.05733
-1.01977
-1.00186
-1.0033
-1.02233
-1.05589
-1.10022
-1.15126
-1.20494
-1.25735
-1.30282
-1.34539
-1.3779
-1.3779
-1.3779
-1.3779
-1.3779
-1.3779
-1.3779
-1.3779
-1.3779
-1.3779
-1.3779
-1.28394
-0.230131
2.0682
5.27415
7.6253
8.4179
8.52169
-1.3779
-1.3779
-1.3779
-1.3779
-1.3779
-1.3779
-1.3779
-1.3779
-1.3779
-1.3779
-1.3779
-1.3779
-1.3779
-1.31738
-1.22112
-1.13408
-1.05272
-0.987512
-0.940387
-0.913812
-0.907785
-0.920502
-0.949059
-0.990054
-1.03986
-1.09495
-1.15177
-1.20686
-1.25732
-1.29995
-1.33879
-1.3779
-1.3779
-1.3779
-1.3779
-1.3779
-1.3779
-1.3779
-1.3779
-1.3779
-1.3779
-1.36709
-0.3342
1.94111
5.17741
7.59146
8.41357
8.52156
-1.3779
-1.3779
-1.3779
-1.3779
-1.3779
-1.3779
-1.3779
-1.3779
-1.3779
-1.3779
-1.3779
-1.3779
-1.2918
-1.18656
-1.08744
-0.995439
-0.917993
-0.860583
-0.824721
-0.810429
-0.816123
-0.839069
-0.875769
-0.922755
-0.976768
-1.03485
-1.09418
-1.15172
-1.20485
-1.25261
-1.29362
-1.33207
-1.3779
-1.3779
-1.3779
-1.3779
-1.3779
-1.3779
-1.3779
-1.3779
-1.3779
-1.3779
-0.422176
1.83141
5.09037
7.5604
8.40957
8.52144
-1.3779
-1.3779
-1.3779
-1.3779
-1.3779
-1.3779
-1.3779
-1.3779
-1.3779
-1.3779
-1.3779
-1.26915
-1.15481
-1.0433
-0.939469
-0.850658
-0.782138
-0.736246
-0.713111
-0.711324
-0.728115
-0.760057
-0.803533
-0.855327
-0.912699
-0.973296
-1.0348
-1.09486
-1.15113
-1.20251
-1.2499
-1.29222
-1.34367
-1.3779
-1.3779
-1.3779
-1.3779
-1.3779
-1.3779
-1.3779
-1.3779
-1.3779
-0.496776
1.73718
5.01359
7.53253
8.40596
8.52134
-1.3779
-1.3779
-1.3779
-1.3779
-1.3779
-1.3779
-1.3779
-1.3779
-1.3779
-1.37675
-1.24929
-1.12644
-1.00289
-0.886973
-0.786485
-0.706707
-0.650217
-0.617669
-0.607834
-0.618054
-0.644811
-0.684415
-0.733474
-0.789242
-0.849578
-0.912653
-0.976673
-1.03972
-1.10003
-1.1567
-1.21065
-1.26212
-1.31686
-1.3779
-1.3779
-1.3779
-1.3779
-1.3779
-1.3779
-1.3779
-1.3779
-1.3779
-0.560059
1.65691
4.94735
7.50822
8.4028
8.52124
-1.3779
-1.3779
-1.3779
-1.3779
-1.3779
-1.3779
-1.3779
-1.3779
-1.36662
-1.23195
-1.10158
-0.966825
-0.839093
-0.726802
-0.635435
-0.568029
-0.525613
-0.507201
-0.510321
-0.531483
-0.566847
-0.612848
-0.666568
-0.725874
-0.789201
-0.855238
-0.922614
-0.989862
-1.05565
-1.1195
-1.18207
-1.24371
-1.3093
-1.3779
-1.3779
-1.3779
-1.3779
-1.3779
-1.3779
-1.3779
-1.3779
-1.3779
-0.613134
1.58947
4.89132
7.48754
8.4001
8.52116
-1.3779
-1.3779
-1.3779
-1.3779
-1.3779
-1.3779
-1.3779
-1.3537
-1.21559
-1.0797
-0.935009
-0.796244
-0.672453
-0.569473
-0.490887
-0.438133
-0.410634
-0.406107
-0.42116
-0.451878
-0.494481
-0.545839
-0.603684
-0.666534
-0.733398
-0.803409
-0.875591
-0.948827
-1.02205
-1.09505
-1.16776
-1.23961
-1.31875
-1.3779
-1.3779
-1.3779
-1.3779
-1.3779
-1.3779
-1.3779
-1.3779
-1.3779
-0.656643
1.53388
4.84488
7.47035
8.39786
8.5211
-1.3779
-1.3779
-1.3779
-1.3779
-1.3779
-1.3779
-1.33423
-1.19643
-1.05711
-0.906176
-0.757922
-0.623477
-0.509249
-0.419479
-0.356115
-0.31902
-0.306293
-0.31469
-0.34028
-0.379109
-0.427793
-0.483873
-0.545815
-0.61279
-0.684316
-0.759908
-0.838865
-0.920245
-1.003
-1.0868
-1.17045
-1.25158
-1.34397
-1.3779
-1.3779
-1.3779
-1.3779
-1.3779
-1.3779
-1.3779
-1.3779
-1.3779
-0.691298
1.489
4.80715
7.45636
8.39603
8.52104
-1.3779
-1.3779
-1.3779
-1.3779
-1.3779
-1.30323
-1.17145
-1.03214
-0.877548
-0.722492
-0.578895
-0.454303
-0.353754
-0.279803
-0.232846
-0.211434
-0.212642
-0.232606
-0.267251
-0.312958
-0.36702
-0.427776
-0.49444
-0.566771
-0.644694
-0.72795
-0.815906
-0.907517
-1.00155
-1.09692
-1.19139
-1.28235
-1.3779
-1.3779
-1.3779
-1.3779
-1.3779
-1.3779
-1.3779
-1.3779
-1.3779
-1.3779
-0.718067
1.45346
4.77699
7.44518
8.39458
8.521
-1.3779
-1.3779
-1.3779
-1.36196
-1.25692
-1.13744
-1.00147
-0.846265
-0.686984
-0.536451
-0.403009
-0.292633
-0.208584
-0.151867
-0.12158
-0.115215
-0.129131
-0.159223
-0.201676
-0.253533
-0.312945
-0.379079
-0.451825
-0.531397
-0.617927
-0.711151
-0.810205
-0.913542
-1.01947
-1.12494
-1.22562
-1.32898
-1.3779
-1.3779
-1.3779
-1.3779
-1.3779
-1.3779
-1.3779
-1.3779
-1.3779
-1.3779
-0.738089
1.42566
4.75309
7.4363
8.39343
8.52097
-1.37115
-1.34072
-1.28267
-1.19765
-1.09343
-0.961395
-0.808191
-0.647408
-0.492372
-0.352238
-0.233667
-0.140632
-0.0748137
-0.0359212
-0.0219724
-0.0296657
-0.0550019
-0.0940489
-0.143624
-0.201667
-0.26723
-0.340243
-0.4211
-0.510229
-0.607703
-0.712937
-0.824502
-0.94013
-1.05706
-1.17081
-1.27643
-1.3779
-1.3779
-1.3779
-1.3779
-1.3779
-1.3779
-1.3779
-1.3779
-1.3779
-1.3779
-1.3779
-0.752378
1.40419
4.73421
7.42927
8.39253
8.52094
-1.22242
-1.19074
-1.12952
-1.03692
-0.908068
-0.758003
-0.598215
-0.441325
-0.297049
-0.172593
-0.0724686
0.00104383
0.047588
0.0685537
0.0667792
0.0460339
0.0102592
-0.0371904
-0.0940461
-0.159212
-0.232585
-0.314652
-0.406046
-0.50711
-0.617542
-0.73608
-0.86038
-0.987284
-1.11181
-1.22758
-1.34109
-1.3779
-1.3779
-1.3779
-1.3779
-1.3779
-1.3779
-1.3779
-1.3779
-1.3779
-1.3779
-1.3779
-0.762039
1.38762
4.71914
7.42363
8.3918
8.52092
-1.08188
-1.03657
-0.951913
-0.833822
-0.688639
-0.531986
-0.375825
-0.23026
-0.102828
0.00164952
0.0804844
0.132794
0.159354
0.162459
0.145522
0.112377
0.0664721
0.0102593
-0.0549995
-0.129122
-0.212622
-0.306256
-0.410574
-0.525525
-0.650099
-0.781988
-0.917818
-1.05254
-1.17898
-1.29728
-1.3779
-1.3779
-1.3779
-1.3779
-1.3779
-1.3779
-1.3779
-1.3779
-1.3779
-1.3779
-1.3779
-1.3779
-0.76899
1.37382
4.70624
7.41884
8.39122
8.5209
-0.883247
-0.826121
-0.723454
-0.589503
-0.438764
-0.285848
-0.141936
-0.0148886
0.0903866
0.171108
0.22609
0.255645
0.261512
0.246658
0.214694
0.169071
0.112376
0.0460323
-0.0296681
-0.115214
-0.211422
-0.318991
-0.438083
-0.567956
-0.70661
-0.85054
-0.995308
-1.13396
-1.25675
-1.37569
-1.3779
-1.3779
-1.3779
-1.3779
-1.3779
-1.3779
-1.3779
-1.3779
-1.3779
-1.3779
-1.3779
-1.3779
-0.772889
1.36313
4.69568
7.41488
8.39074
8.52089
-0.621938
-0.556466
-0.443423
-0.304444
-0.158139
-0.0189744
0.104091
0.205982
0.284083
0.337315
0.365778
0.370823
0.354973
0.321536
0.273888
0.21469
0.145518
0.0667735
-0.0219806
-0.121586
-0.232844
-0.356101
-0.490858
-0.63539
-0.786424
-0.939396
-1.08736
-1.22105
-1.34559
-1.3779
-1.3779
-1.3779
-1.3779
-1.3779
-1.3779
-1.3779
-1.3779
-1.3779
-1.3779
-1.3779
-1.3779
-1.3779
-0.774219
1.35502
4.68703
7.41157
8.39034
8.52088
-0.291396
-0.222251
-0.107701
0.0249537
0.155198
0.270467
0.364501
0.434734
0.480495
0.50217
0.501022
0.479307
0.440072
0.386574
0.321532
0.246647
0.162446
0.0685394
-0.0359372
-0.151881
-0.279812
-0.419483
-0.56947
-0.726791
-0.886955
-1.04328
-1.18655
-1.31738
-1.3779
-1.3779
-1.3779
-1.3779
-1.3779
-1.3779
-1.3779
-1.3779
-1.3779
-1.3779
-1.3779
-1.3779
-1.3779
-1.3779
-0.773567
1.349
4.67998
7.40881
8.39001
8.52087
0.118382
0.183982
0.288107
0.401359
0.503826
0.585353
0.642235
0.674064
0.681853
0.66732
0.632818
0.581344
0.516153
0.440067
0.35496
0.261493
0.15933
0.0475629
-0.0748399
-0.208608
-0.353776
-0.50927
-0.672474
-0.839115
-1.00291
-1.15482
-1.29183
-1.3779
-1.3779
-1.3779
-1.3779
-1.3779
-1.3779
-1.3779
-1.3779
-1.3779
-1.3779
-1.3779
-1.3779
-1.3779
-1.3779
-1.3779
-0.771452
1.34471
4.6743
7.40653
8.38974
8.52086
0.612463
0.666122
0.746883
0.827419
0.890419
0.928345
0.939733
0.925974
0.889565
0.83349
0.761127
0.676023
0.581338
0.479298
0.370806
0.25562
0.132763
0.00100935
-0.140667
-0.292666
-0.454337
-0.623513
-0.796282
-0.966863
-1.12647
-1.26918
-1.3779
-1.3779
-1.3779
-1.3779
-1.3779
-1.3779
-1.3779
-1.3779
-1.3779
-1.3779
-1.3779
-1.3779
-1.3779
-1.3779
-1.3779
-1.3779
-0.768402
1.34169
4.66969
7.40464
8.38951
8.52085
1.1928
1.22562
1.2698
1.30426
1.31603
1.30033
1.25759
1.19067
1.10336
0.999855
0.884464
0.761118
0.632804
0.501005
0.365754
0.226061
0.0804514
-0.0725026
-0.233701
-0.403046
-0.578936
-0.757965
-0.93505
-1.10161
-1.2493
-1.3779
-1.3779
-1.3779
-1.3779
-1.3779
-1.3779
-1.3779
-1.3779
-1.3779
-1.3779
-1.3779
-1.3779
-1.3779
-1.3779
-1.3779
-1.3779
-1.3779
-0.764972
1.33935
4.6657
7.40297
8.38931
8.52085
1.85653
1.85984
1.85458
1.82973
1.77842
1.69899
1.59345
1.46575
1.32075
1.16372
0.99985
0.833475
0.667299
0.50214
0.337279
0.171073
0.00162035
-0.172617
-0.352261
-0.536478
-0.722523
-0.906207
-1.07972
-1.23196
-1.37675
-1.3779
-1.3779
-1.3779
-1.3779
-1.3779
-1.3779
-1.3779
-1.3779
-1.3779
-1.3779
-1.3779
-1.3779
-1.3779
-1.3779
-1.3779
-1.3779
-1.3779
-0.76176
1.33695
4.66167
7.40127
8.3891
8.52084
2.59571
2.56149
2.4946
2.39741
2.2713
2.11826
1.94167
1.74607
1.53702
1.32074
1.10334
0.889539
0.681829
0.480466
0.284054
0.0903602
-0.102848
-0.297065
-0.492387
-0.686999
-0.877562
-1.05712
-1.2156
-1.36662
-1.3779
-1.3779
-1.3779
-1.3779
-1.3779
-1.3779
-1.3779
-1.3779
-1.3779
-1.3779
-1.3779
-1.3779
-1.3779
-1.3779
-1.3779
-1.3779
-1.3779
-1.3779
-0.759383
1.33367
4.65689
7.39926
8.38884
8.52083
3.39863
3.3195
3.17943
2.99733
2.7852
2.54944
2.29441
2.02466
1.74605
1.46573
1.19064
0.925942
0.674038
0.434707
0.205959
-0.0149066
-0.230272
-0.44133
-0.647408
-0.846263
-1.03214
-1.19642
-1.35369
-1.3779
-1.3779
-1.3779
-1.3779
-1.3779
-1.3779
-1.3779
-1.3779
-1.3779
-1.3779
-1.3779
-1.3779
-1.3779
-1.3779
-1.3779
-1.3779
-1.3779
-1.3779
-1.3779
-0.758412
1.32875
4.65066
7.39665
8.3885
8.52082
4.25043
4.12015
3.89679
3.61859
3.3104
2.9838
2.64379
2.2944
1.94164
1.59341
1.25756
0.939707
0.642219
0.364488
0.10408
-0.141945
-0.375828
-0.59821
-0.808178
-1.00145
-1.17143
-1.3342
-1.3779
-1.3779
-1.3779
-1.3779
-1.3779
-1.3779
-1.3779
-1.3779
-1.3779
-1.3779
-1.3779
-1.3779
-1.3779
-1.3779
-1.3779
-1.3779
-1.3779
-1.3779
-1.3779
-1.3779
-0.75926
1.32164
4.6425
7.39327
8.38805
8.52081
5.13077
4.94619
4.63366
4.25186
3.83983
3.41517
2.98379
2.54942
2.11823
1.69895
1.3003
0.928329
0.585343
0.270461
-0.0189787
-0.285848
-0.531977
-0.757987
-0.961372
-1.13741
-1.30318
-1.3779
-1.3779
-1.3779
-1.3779
-1.3779
-1.3779
-1.3779
-1.3779
-1.3779
-1.3779
-1.3779
-1.3779
-1.3779
-1.3779
-1.3779
-1.3779
-1.3779
-1.3779
-1.3779
-1.3779
-1.3779
-0.762097
1.31219
4.6323
7.38906
8.38748
8.52079
6.00912
5.77323
5.37421
4.88852
4.36877
3.83982
3.31038
2.78517
2.27126
1.77839
1.31599
0.890395
0.503804
0.155181
-0.158151
-0.438767
-0.688628
-0.908048
-1.09341
-1.25687
-1.3779
-1.3779
-1.3779
-1.3779
-1.3779
-1.3779
-1.3779
-1.3779
-1.3779
-1.3779
-1.3779
-1.3779
-1.3779
-1.3779
-1.3779
-1.3779
-1.3779
-1.3779
-1.3779
-1.3779
-1.3779
-1.3779
-0.766746
1.30074
4.62039
7.38417
8.38682
8.52077
6.8412
6.56476
6.09328
5.51358
4.88851
4.25184
3.61857
2.9973
2.39737
1.82969
1.30422
0.827385
0.401335
0.0249437
-0.304443
-0.589494
-0.833802
-1.03689
-1.19762
-1.3619
-1.3779
-1.3779
-1.3779
-1.3779
-1.3779
-1.3779
-1.3779
-1.3779
-1.3779
-1.3779
-1.3779
-1.3779
-1.3779
-1.3779
-1.3779
-1.3779
-1.3779
-1.3779
-1.3779
-1.3779
-1.3779
-1.3779
-0.772647
1.28824
4.60768
7.37895
8.38611
8.52075
7.57022
7.26904
6.74751
6.09327
5.37419
4.63364
3.89676
3.17939
2.49456
1.85455
1.26977
0.746862
0.288098
-0.107702
-0.443422
-0.723453
-0.95191
-1.12952
-1.28265
-1.3779
-1.3779
-1.3779
-1.3779
-1.3779
-1.3779
-1.3779
-1.3779
-1.3779
-1.3779
-1.3779
-1.3779
-1.3779
-1.3779
-1.3779
-1.3779
-1.3779
-1.3779
-1.3779
-1.3779
-1.3779
-1.3779
-1.3779
-0.778849
1.27615
4.59557
7.37399
8.38543
8.52073
8.12914
7.81783
7.26904
6.56475
5.77321
4.94617
4.12012
3.31947
2.56146
1.85981
1.2256
0.666116
0.183986
-0.222245
-0.556461
-0.826119
-1.03657
-1.19074
-1.34071
-1.3779
-1.3779
-1.3779
-1.3779
-1.3779
-1.3779
-1.3779
-1.3779
-1.3779
-1.3779
-1.3779
-1.3779
-1.3779
-1.3779
-1.3779
-1.3779
-1.3779
-1.3779
-1.3779
-1.3779
-1.3779
-1.3779
-1.3779
-0.78415
1.26632
4.58582
7.37
8.38488
8.52072
8.44218
8.12914
7.57022
6.84119
6.0091
5.13075
4.2504
3.39859
2.59567
1.85649
1.19278
0.61244
0.118371
-0.291403
-0.621943
-0.883253
-1.08189
-1.22241
-1.37114
-1.3779
-1.3779
-1.3779
-1.3779
-1.3779
-1.3779
-1.3779
-1.3779
-1.3779
-1.3779
-1.3779
-1.3779
-1.3779
-1.3779
-1.3779
-1.3779
-1.3779
-1.3779
-1.3779
-1.3779
-1.3779
-1.3779
-1.3779
-0.787329
1.26069
4.58024
7.36771
8.38457
8.52071
)
;

boundaryField
{
    inlet
    {
        type            cyclic;
    }
    outlet
    {
        type            cyclic;
    }
    walls
    {
        type            calculated;
        value           nonuniform List<scalar> 
96
(
8.5248
8.52477
8.52472
8.52465
8.52455
8.52442
8.52427
8.5241
8.52389
8.52367
8.52343
8.52318
8.52294
8.52271
8.52249
8.52229
8.52211
8.52194
8.52179
8.52165
8.52152
8.5214
8.52129
8.5212
8.52112
8.52105
8.521
8.52096
8.52092
8.5209
8.52088
8.52086
8.52085
8.52083
8.52082
8.52082
8.52081
8.5208
8.5208
8.52079
8.52078
8.52077
8.52075
8.52073
8.52071
8.52069
8.52067
8.52066
8.52066
8.52067
8.52069
8.52071
8.52073
8.52075
8.52077
8.52078
8.52079
8.5208
8.5208
8.52081
8.52082
8.52082
8.52083
8.52084
8.52086
8.52088
8.5209
8.52092
8.52096
8.521
8.52105
8.52112
8.5212
8.52129
8.5214
8.52152
8.52165
8.52179
8.52194
8.52211
8.52229
8.52249
8.52271
8.52294
8.52318
8.52343
8.52367
8.52389
8.5241
8.52427
8.52442
8.52455
8.52465
8.52472
8.52477
8.5248
)
;
    }
    symPlanes
    {
        type            symmetry;
    }
}


// ************************************************************************* //
