/*--------------------------------*- C++ -*----------------------------------*\
| =========                 |                                                 |
| \\      /  F ield         | OpenFOAM: The Open Source CFD Toolbox           |
|  \\    /   O peration     | Version:  2412                                  |
|   \\  /    A nd           | Website:  www.openfoam.com                      |
|    \\/     M anipulation  |                                                 |
\*---------------------------------------------------------------------------*/
FoamFile
{
    version     2.0;
    format      ascii;
    arch        "LSB;label=32;scalar=64";
    class       volSymmTensorField;
    location    "2130";
    object      bijDelta;
}
// * * * * * * * * * * * * * * * * * * * * * * * * * * * * * * * * * * * * * //

dimensions      [0 0 0 0 0 0 0];

internalField   nonuniform List<symmTensor> 
2304
(
(-0.000169625 1.80691e-07 -2.38405e-07 -1.92276e-10 -5.61118e-09 0.000169625)
(-0.000169242 5.37822e-07 -2.39514e-07 -1.70748e-09 -1.58167e-08 0.000169243)
(-0.000168573 8.89254e-07 -2.39255e-07 -4.6874e-09 -2.33455e-08 0.000168577)
(-0.000167742 1.23838e-06 -2.38841e-07 -9.13748e-09 -2.73417e-08 0.000167751)
(-0.000166871 1.58532e-06 -2.38162e-07 -1.50555e-08 -2.77876e-08 0.000166886)
(-0.000166057 1.92734e-06 -2.37098e-07 -2.2365e-08 -2.53204e-08 0.000166079)
(-0.00016536 2.25993e-06 -2.35558e-07 -3.08823e-08 -2.09737e-08 0.000165391)
(-0.000164805 2.57776e-06 -2.33487e-07 -4.03171e-08 -1.59318e-08 0.000164845)
(-0.000164384 2.87542e-06 -2.30856e-07 -5.02954e-08 -1.13361e-08 0.000164435)
(-0.000164066 3.1481e-06 -2.27675e-07 -6.04049e-08 -8.11152e-09 0.000164126)
(-0.000163805 3.39202e-06 -2.2397e-07 -7.02398e-08 -6.84514e-09 0.000163876)
(-0.000163555 3.60467e-06 -2.19801e-07 -7.94439e-08 -7.69172e-09 0.000163635)
(-0.000163275 3.78485e-06 -2.15212e-07 -8.77344e-08 -1.04021e-08 0.000163363)
(-0.000162939 3.93235e-06 -2.10215e-07 -9.49007e-08 -1.45334e-08 0.000163034)
(-0.000162532 4.04712e-06 -2.04732e-07 -1.00771e-07 -1.97714e-08 0.000162633)
(-0.000162044 4.12878e-06 -1.98658e-07 -1.05193e-07 -2.62078e-08 0.000162149)
(-0.000161462 4.1759e-06 -1.91766e-07 -1.07992e-07 -3.45588e-08 0.00016157)
(-0.000160757 4.18609e-06 -1.84015e-07 -1.08989e-07 -4.59489e-08 0.000160866)
(-0.000159889 4.15809e-06 -1.75467e-07 -1.08108e-07 -6.16794e-08 0.000159998)
(-0.000158802 4.09002e-06 -1.6582e-07 -1.05292e-07 -8.34099e-08 0.000158907)
(-0.000157421 3.98042e-06 -1.5527e-07 -1.0056e-07 -1.12616e-07 0.000157521)
(-0.00015567 3.82969e-06 -1.43886e-07 -9.40633e-08 -1.50353e-07 0.000155764)
(-0.000153471 3.64024e-06 -1.32126e-07 -8.60836e-08 -1.97035e-07 0.000153557)
(-0.00015076 3.41767e-06 -1.20434e-07 -7.70466e-08 -2.52155e-07 0.000150837)
(-0.000147494 3.17e-06 -1.09448e-07 -6.74513e-08 -3.14318e-07 0.000147562)
(-0.00014366 2.90812e-06 -9.98924e-08 -5.78503e-08 -3.80658e-07 0.000143718)
(-0.000139287 2.64444e-06 -9.17361e-08 -4.8761e-08 -4.4696e-07 0.000139336)
(-0.000134453 2.3877e-06 -8.20547e-08 -4.04434e-08 -5.11839e-07 0.000134493)
(-0.000129214 2.11982e-06 -6.35976e-08 -3.2129e-08 -5.83911e-07 0.000129246)
(-0.000123484 1.82459e-06 -4.31606e-08 -2.33165e-08 -6.70166e-07 0.000123507)
(-0.000117194 1.50711e-06 -2.20156e-08 -1.43197e-08 -7.69953e-07 0.000117209)
(-0.000110296 1.17207e-06 -6.09189e-10 -5.38251e-09 -8.83219e-07 0.000110302)
(-0.000102746 8.26527e-07 1.99074e-08 3.27524e-09 -1.00992e-06 0.000102743)
(-9.45157e-05 4.82311e-07 3.72833e-08 1.14698e-08 -1.14759e-06 9.45042e-05)
(-8.56138e-05 1.57733e-07 4.83904e-08 1.91274e-08 -1.2893e-06 8.55947e-05)
(-7.61193e-05 -1.22862e-07 4.99198e-08 2.63988e-08 -1.42253e-06 7.60929e-05)
(-6.62061e-05 -3.32571e-07 3.95727e-08 3.36998e-08 -1.52968e-06 6.61724e-05)
(-5.61545e-05 -4.48967e-07 1.77762e-08 4.15443e-08 -1.59127e-06 5.61129e-05)
(-4.63271e-05 -4.63788e-07 -1.06012e-08 5.01315e-08 -1.59221e-06 4.6277e-05)
(-3.71073e-05 -3.90303e-07 -3.65125e-08 5.8966e-08 -1.529e-06 3.70483e-05)
(-2.88098e-05 -2.66926e-07 -4.84966e-08 6.70059e-08 -1.4136e-06 2.87428e-05)
(-2.16042e-05 -1.45688e-07 -4.21594e-08 7.36116e-08 -1.26759e-06 2.15306e-05)
(-1.5515e-05 -6.20075e-08 -2.62975e-08 7.93595e-08 -1.10861e-06 1.54357e-05)
(-1.04959e-05 -1.95187e-08 -1.21397e-08 8.54823e-08 -9.43571e-07 1.04104e-05)
(-6.49214e-06 -3.82677e-09 -3.96531e-09 9.31435e-08 -7.72039e-07 6.399e-06)
(-3.46365e-06 -1.67264e-10 -7.1846e-10 1.03884e-07 -5.90783e-07 3.35976e-06)
(-1.3948e-06 5.80066e-11 -1.21579e-11 1.21634e-07 -3.93523e-07 1.27316e-06)
(-3.20937e-07 2.93732e-12 -3.01927e-12 1.60469e-07 -1.60469e-07 1.60469e-07)
(-0.0057057 5.65994e-06 6.46771e-06 -5.54973e-09 -6.1448e-07 0.00570571)
(-0.00569312 1.68172e-05 6.45253e-06 -4.91583e-08 -1.73754e-06 0.00569317)
(-0.00567113 2.77109e-05 6.2451e-06 -1.34257e-07 -2.58184e-06 0.00567126)
(-0.00564381 3.84152e-05 5.99499e-06 -2.59863e-07 -3.0599e-06 0.00564407)
(-0.00561517 4.89302e-05 5.74396e-06 -4.24642e-07 -3.16935e-06 0.00561559)
(-0.00558836 5.91854e-05 5.52574e-06 -6.25299e-07 -2.97551e-06 0.00558899)
(-0.00556541 6.90656e-05 5.36313e-06 -8.55951e-07 -2.58435e-06 0.00556627)
(-0.00554712 7.84348e-05 5.26759e-06 -1.1083e-06 -2.1174e-06 0.00554823)
(-0.00553323 8.71538e-05 5.24043e-06 -1.37229e-06 -1.69189e-06 0.00553461)
(-0.00552272 9.5098e-05 5.2742e-06 -1.63722e-06 -1.40279e-06 0.00552436)
(-0.00551412 0.000102167 5.35647e-06 -1.89272e-06 -1.31041e-06 0.00551601)
(-0.00550584 0.000108294 5.47131e-06 -2.12971e-06 -1.43057e-06 0.00550797)
(-0.00549658 0.000113445 5.60532e-06 -2.34094e-06 -1.7374e-06 0.00549892)
(-0.00548543 0.000117614 5.75104e-06 -2.52099e-06 -2.18508e-06 0.00548795)
(-0.00547192 0.0001208 5.91011e-06 -2.66557e-06 -2.74099e-06 0.00547458)
(-0.00545573 0.000123 6.08977e-06 -2.77106e-06 -3.41454e-06 0.0054585)
(-0.00543643 0.000124187 6.30361e-06 -2.8337e-06 -4.27968e-06 0.00543927)
(-0.00541311 0.000124316 6.55235e-06 -2.84983e-06 -5.45222e-06 0.00541596)
(-0.00538406 0.000123355 6.83134e-06 -2.81733e-06 -7.06757e-06 0.00538688)
(-0.00534773 0.000121273 7.14074e-06 -2.73456e-06 -9.29836e-06 0.00535047)
(-0.00530174 0.000118055 7.45316e-06 -2.60099e-06 -1.2298e-05 0.00530434)
(-0.00524357 0.000113726 7.74226e-06 -2.41771e-06 -1.61777e-05 0.00524598)
(-0.00517063 0.000108363 7.96022e-06 -2.18723e-06 -2.09831e-05 0.00517282)
(-0.00508083 0.000102109 8.06188e-06 -1.91389e-06 -2.66651e-05 0.00508274)
(-0.0049727 9.51554e-05 7.99931e-06 -1.6028e-06 -3.30863e-05 0.00497431)
(-0.0048457 8.77313e-05 7.7284e-06 -1.26125e-06 -3.99584e-05 0.00484696)
(-0.00470065 8.00954e-05 7.26677e-06 -9.00442e-07 -4.68462e-05 0.00470155)
(-0.00453997 7.24695e-05 6.8521e-06 -5.26726e-07 -5.35947e-05 0.0045405)
(-0.00436568 6.45848e-05 6.90153e-06 -1.03232e-07 -6.10962e-05 0.00436578)
(-0.00417472 5.61943e-05 7.06616e-06 4.17287e-07 -7.00872e-05 0.0041743)
(-0.0039649 4.74265e-05 7.24322e-06 1.06413e-06 -8.04986e-05 0.00396384)
(-0.00373469 3.83975e-05 7.41965e-06 1.88565e-06 -9.23343e-05 0.0037328)
(-0.00348263 2.92708e-05 7.53508e-06 2.95557e-06 -0.000105607 0.00347968)
(-0.00320772 2.03008e-05 7.46219e-06 4.36955e-06 -0.00012008 0.00320335)
(-0.00291011 1.18566e-05 7.02402e-06 6.2297e-06 -0.000135047 0.00290388)
(-0.00259214 4.40748e-06 6.04006e-06 8.60849e-06 -0.000149206 0.00258353)
(-0.00225918 -1.5382e-06 4.40602e-06 1.14872e-05 -0.00016069 0.0022477)
(-0.00192015 -5.53664e-06 2.19724e-06 1.46888e-05 -0.000167383 0.00190546)
(-0.00158694 -7.35547e-06 -2.47897e-07 1.78656e-05 -0.000167586 0.00156907)
(-0.00127202 -7.06943e-06 -2.34464e-06 2.06048e-05 -0.000160737 0.00125142)
(-0.000988331 -5.26687e-06 -3.37342e-06 2.27242e-05 -0.000148236 0.000965607)
(-0.00074286 -3.03937e-06 -3.06554e-06 2.44127e-05 -0.000132481 0.000718447)
(-0.000536674 -1.33235e-06 -2.01014e-06 2.60513e-05 -0.000115349 0.000510622)
(-0.000367952 -4.11536e-07 -9.97639e-07 2.79298e-05 -9.74535e-05 0.000340023)
(-0.000234064 -5.98489e-08 -3.70545e-07 3.01022e-05 -7.83566e-05 0.000203962)
(-0.000129413 1.68095e-08 -8.85729e-08 3.129e-05 -5.541e-05 9.8123e-05)
(-4.1757e-05 6.49225e-09 -6.47744e-09 2.08785e-05 -2.08785e-05 2.08785e-05)
(-1.3948e-06 1.21583e-11 -5.81093e-11 1.27316e-06 -3.93522e-07 1.21634e-07)
(-0.041365 3.785e-05 0.000150097 -3.32258e-08 -7.76869e-06 0.041365)
(-0.0412958 0.000112067 0.000150203 -2.92845e-07 -2.1987e-05 0.0412961)
(-0.0411747 0.000183835 0.000148721 -7.95792e-07 -3.27381e-05 0.0411755)
(-0.0410239 0.000253611 0.00014693 -1.5326e-06 -3.89249e-05 0.0410254)
(-0.0408651 0.000321252 0.000145144 -2.48754e-06 -4.05008e-05 0.0408676)
(-0.0407156 0.000386376 0.000143621 -3.63311e-06 -3.8267e-05 0.0407192)
(-0.0405866 0.000448391 0.000142554 -4.92854e-06 -3.35398e-05 0.0405915)
(-0.0404825 0.000506604 0.000142057 -6.32294e-06 -2.78418e-05 0.0404888)
(-0.040402 0.000560311 0.000142168 -7.76004e-06 -2.26493e-05 0.0404097)
(-0.0403393 0.000608881 0.000142851 -9.18328e-06 -1.91633e-05 0.0403485)
(-0.0402864 0.00065181 0.000144024 -1.05397e-05 -1.81511e-05 0.0402969)
(-0.0402343 0.000688757 0.000145569 -1.17831e-05 -1.98213e-05 0.0402461)
(-0.0401757 0.000719556 0.00014738 -1.28762e-05 -2.38567e-05 0.0401886)
(-0.0401053 0.00074418 0.000149402 -1.37907e-05 -2.96887e-05 0.0401191)
(-0.0400202 0.000762668 0.000151661 -1.45053e-05 -3.6912e-05 0.0400347)
(-0.0399181 0.000775071 0.000154241 -1.50036e-05 -4.56506e-05 0.0399331)
(-0.0397961 0.00078138 0.000157285 -1.52694e-05 -5.68418e-05 0.0398114)
(-0.0396489 0.000781563 0.000160818 -1.52869e-05 -7.19465e-05 0.0396641)
(-0.0394753 0.000775716 0.000164748 -1.50405e-05 -9.27191e-05 0.0394903)
(-0.0392589 0.000763666 0.000169159 -1.44997e-05 -0.000121378 0.0392734)
(-0.0389853 0.000745547 0.000173798 -1.36287e-05 -0.000159929 0.0389989)
(-0.0386396 0.000721633 0.000178393 -1.23731e-05 -0.000209894 0.0386519)
(-0.0382057 0.000692366 0.000182452 -1.06576e-05 -0.000272014 0.0382164)
(-0.03767 0.000658419 0.00018548 -8.39231e-06 -0.000345877 0.0376784)
(-0.0370218 0.000620468 0.000186955 -5.47647e-06 -0.000430049 0.0370273)
(-0.0362545 0.000579081 0.000186335 -1.83935e-06 -0.000521308 0.0362563)
(-0.0353675 0.000534961 0.000183488 2.48828e-06 -0.000614467 0.035365)
(-0.0343702 0.000489597 0.000180146 7.4897e-06 -0.000707556 0.0343627)
(-0.0332722 0.000443138 0.000179845 1.3812e-05 -0.000812091 0.0332584)
(-0.0320504 0.000395615 0.000179673 2.24594e-05 -0.00093798 0.0320279)
(-0.0306874 0.00034784 0.000178688 3.43176e-05 -0.00108493 0.0306531)
(-0.0291689 0.000300206 0.000176698 5.07552e-05 -0.0012539 0.0291182)
(-0.0274796 0.000253049 0.000172978 7.38179e-05 -0.00144613 0.0274058)
(-0.025605 0.000206771 0.000166112 0.000106184 -0.00165964 0.0254988)
(-0.0235365 0.000161807 0.000154149 0.000150822 -0.001886 0.0233857)
(-0.0212779 0.000118652 0.000135033 0.000210113 -0.00210802 0.0210678)
(-0.0188528 7.80491e-05 0.000107397 0.000284234 -0.00229914 0.0185685)
(-0.0163114 4.14333e-05 7.17328e-05 0.000369214 -0.00242665 0.0159421)
(-0.0137343 1.13517e-05 3.15161e-05 0.000456118 -0.00246094 0.0132782)
(-0.0112401 -7.70997e-06 -6.49998e-06 0.00053422 -0.00239134 0.0107059)
(-0.00891454 -1.27316e-05 -3.15951e-05 0.000595858 -0.00222632 0.00831868)
(-0.00684076 -7.92299e-06 -3.64225e-05 0.000643773 -0.00199739 0.00619698)
(-0.00505651 -1.52795e-06 -2.67319e-05 0.0006855 -0.00173101 0.00437101)
(-0.00354169 1.83192e-06 -1.41658e-05 0.000717793 -0.00142372 0.0028239)
(-0.00219932 2.11166e-06 -5.23353e-06 0.000692969 -0.00102169 0.00150635)
(-0.000919116 9.18641e-07 -9.17712e-07 0.000459558 -0.000459558 0.000459558)
(-0.000129413 8.86466e-08 -1.67177e-08 9.81229e-05 -5.541e-05 3.129e-05)
(-3.46364e-06 7.18996e-10 1.67903e-10 3.35976e-06 -5.90783e-07 1.03884e-07)
(-0.0876626 7.28655e-05 -0.000330621 -5.40637e-08 -2.36002e-05 0.0876626)
(-0.0876447 0.000215206 -0.000331878 -4.76274e-07 -6.67876e-05 0.0876452)
(-0.0876128 0.000351583 -0.000330318 -1.29506e-06 -9.93967e-05 0.0876141)
(-0.0875717 0.000482519 -0.000328327 -2.49485e-06 -0.000117958 0.0875742)
(-0.0875268 0.000607504 -0.000325892 -4.03953e-06 -0.000122207 0.0875308)
(-0.0874829 0.000725924 -0.000322935 -5.86662e-06 -0.000114523 0.0874888)
(-0.0874439 0.000836986 -0.000319322 -7.89235e-06 -9.89674e-05 0.0874518)
(-0.0874115 0.000939827 -0.000314889 -1.00246e-05 -8.03409e-05 0.0874215)
(-0.0873858 0.00103364 -0.000309463 -1.21749e-05 -6.33599e-05 0.087398)
(-0.0873655 0.00111774 -0.000302914 -1.42645e-05 -5.1898e-05 0.0873797)
(-0.087348 0.00119162 -0.000295142 -1.62247e-05 -4.84623e-05 0.0873642)
(-0.0873307 0.00125496 -0.000286104 -1.79957e-05 -5.37914e-05 0.0873487)
(-0.087311 0.00130766 -0.000275747 -1.95269e-05 -6.69663e-05 0.0873305)
(-0.087287 0.00134978 -0.000263944 -2.07789e-05 -8.62781e-05 0.0873078)
(-0.0872573 0.00138153 -0.000250426 -2.17231e-05 -0.00011054 0.087279)
(-0.0872207 0.00140329 -0.000234806 -2.23394e-05 -0.00014026 0.087243)
(-0.0871754 0.00141556 -0.000216554 -2.26055e-05 -0.000178563 0.087198)
(-0.087119 0.00141908 -0.000195429 -2.24888e-05 -0.000230361 0.0871414)
(-0.0870512 0.00141423 -0.000171514 -2.19119e-05 -0.000301429 0.0870731)
(-0.0869634 0.00140134 -0.000143979 -2.07263e-05 -0.000399274 0.0869841)
(-0.0868474 0.0013815 -0.000112865 -1.87041e-05 -0.000531193 0.0868661)
(-0.0866931 0.00135559 -7.82148e-05 -1.54705e-05 -0.00070333 0.0867085)
(-0.0864875 0.00132444 -4.05782e-05 -1.04856e-05 -0.000919832 0.086498)
(-0.0862154 0.00128875 -5.25216e-07 -3.06744e-06 -0.00118166 0.0862185)
(-0.0858592 0.00124841 4.13018e-05 7.59216e-06 -0.00148724 0.0858516)
(-0.0853988 0.00120192 8.40056e-05 2.22747e-05 -0.00183037 0.0853765)
(-0.0848117 0.00114702 0.000126546 4.14404e-05 -0.00219895 0.0847702)
(-0.0840765 0.0010853 0.000169664 6.56923e-05 -0.00258977 0.0840108)
(-0.0831727 0.00102389 0.000217975 9.87e-05 -0.00304336 0.083074)
(-0.0820528 0.00097042 0.000269065 0.000146477 -0.00359987 0.0819064)
(-0.0806648 0.000925769 0.000322316 0.00021554 -0.00426901 0.0804492)
(-0.0789476 0.000889983 0.000377377 0.000316009 -0.00506731 0.0786316)
(-0.0768274 0.000861859 0.000431865 0.00046333 -0.00601457 0.076364)
(-0.0742171 0.000837872 0.000480968 0.000679001 -0.00712058 0.0735381)
(-0.0710212 0.000810514 0.000517332 0.00098977 -0.00837028 0.0700315)
(-0.0671445 0.000767573 0.0005312 0.00142324 -0.00970756 0.0657213)
(-0.0625073 0.000693867 0.000510878 0.00199737 -0.0110209 0.0605099)
(-0.0570696 0.000577 0.000444233 0.00270346 -0.012141 0.0543662)
(-0.0508698 0.000416843 0.000322377 0.00348986 -0.012867 0.04738)
(-0.0440956 0.000246258 0.000146739 0.00426607 -0.0130364 0.0398295)
(-0.0369657 0.000121239 -3.39007e-05 0.0049348 -0.0125713 0.0320309)
(-0.0298034 6.56722e-05 -0.000133348 0.00545339 -0.0115228 0.02435)
(-0.022747 5.17491e-05 -0.000128828 0.00575925 -0.00989115 0.0169877)
(-0.0155263 4.18504e-05 -7.26549e-05 0.00551686 -0.00743106 0.0100094)
(-0.0079881 2.21765e-05 -2.21643e-05 0.00399405 -0.00399405 0.00399405)
(-0.00219932 5.23607e-06 -2.10869e-06 0.00150635 -0.00102169 0.000692968)
(-0.000234064 3.70707e-07 6.00879e-08 0.000203962 -7.83564e-05 3.01021e-05)
(-6.49214e-06 3.96691e-09 3.83015e-09 6.39899e-06 -7.72037e-07 9.31433e-08)
(-0.044427 3.22019e-05 -0.000418101 -1.70288e-08 -1.64411e-05 0.044427)
(-0.0445907 9.54371e-05 -0.000422755 -1.53526e-07 -4.66571e-05 0.0445909)
(-0.0448757 0.000156031 -0.000426736 -4.29358e-07 -6.9774e-05 0.0448761)
(-0.0452249 0.000213655 -0.00043147 -8.48427e-07 -8.3275e-05 0.0452258)
(-0.0455844 0.000268045 -0.000435897 -1.40126e-06 -8.67246e-05 0.0455858)
(-0.0459121 0.000318749 -0.00043912 -2.05704e-06 -8.15605e-05 0.0459141)
(-0.0461814 0.000365346 -0.000440516 -2.7716e-06 -7.05595e-05 0.0461842)
(-0.0463831 0.000407523 -0.000439792 -3.50015e-06 -5.7194e-05 0.0463866)
(-0.0465222 0.000445117 -0.000436952 -4.20686e-06 -4.49782e-05 0.0465264)
(-0.0466144 0.000478117 -0.000432242 -4.86738e-06 -3.68444e-05 0.0466192)
(-0.0466816 0.000506626 -0.000426047 -5.46506e-06 -3.47145e-05 0.0466871)
(-0.0467473 0.000530827 -0.000418812 -5.98613e-06 -3.92156e-05 0.0467533)
(-0.0468327 0.000550944 -0.000410924 -6.4174e-06 -4.97902e-05 0.0468391)
(-0.0469543 0.000567251 -0.000402641 -6.74758e-06 -6.53466e-05 0.046961)
(-0.0471244 0.000580079 -0.000394048 -6.96786e-06 -8.52181e-05 0.0471314)
(-0.0473538 0.000589892 -0.000385131 -7.06916e-06 -0.000110035 0.0473608)
(-0.0476549 0.000597297 -0.000375803 -7.03088e-06 -0.000142446 0.047662)
(-0.0480419 0.000603071 -0.000366072 -6.80751e-06 -0.000186643 0.0480487)
(-0.048504 0.000607421 -0.00035544 -6.29722e-06 -0.000247364 0.0485103)
(-0.0490986 0.000611406 -0.000344605 -5.3158e-06 -0.000331365 0.0491039)
(-0.0498611 0.0006162 -0.000334067 -3.54235e-06 -0.00044628 0.0498646)
(-0.0508247 0.000622736 -0.000324135 -4.48635e-07 -0.000599948 0.0508252)
(-0.0520233 0.000631816 -0.000315465 4.75956e-06 -0.000800164 0.0520185)
(-0.0534806 0.000644 -0.000308417 1.31691e-05 -0.00105383 0.0534674)
(-0.0552077 0.00065907 -0.00030289 2.62132e-05 -0.00136762 0.0551815)
(-0.0572058 0.000675194 -0.000298466 4.56475e-05 -0.00174703 0.0571602)
(-0.0594714 0.000687521 -0.000294863 7.3496e-05 -0.00219598 0.0593979)
(-0.0620006 0.000690791 -0.000287665 0.000112811 -0.00272759 0.0618878)
(-0.064785 0.000699634 -0.000254146 0.000170912 -0.0033928 0.064614)
(-0.0677795 0.000734712 -0.000214111 0.000259978 -0.00425072 0.0675195)
(-0.0709391 0.000795595 -0.000165965 0.000397059 -0.00534921 0.070542)
(-0.0742011 0.00088638 -0.000108732 0.00060938 -0.00675273 0.0735917)
(-0.0774754 0.00101102 -4.22702e-05 0.000940129 -0.00854065 0.0765352)
(-0.0806359 0.00116941 3.35726e-05 0.00145439 -0.0107936 0.0791815)
(-0.0835154 0.00135173 0.000120103 0.0022439 -0.0135716 0.0812715)
(-0.0859043 0.00153227 0.000220288 0.00342604 -0.0168808 0.0824783)
(-0.0875467 0.00166477 0.000336051 0.00512893 -0.0206298 0.0824178)
(-0.0881274 0.00168363 0.000458434 0.00745358 -0.0245822 0.0806739)
(-0.0872449 0.00151217 0.000545349 0.0104078 -0.0283208 0.0768371)
(-0.0843815 0.00114008 0.000478839 0.0138149 -0.0312406 0.0705666)
(-0.078839 0.000700306 0.000182441 0.0172737 -0.032612 0.0615654)
(-0.0698007 0.000382495 -0.000146505 0.0201848 -0.0316447 0.0496159)
(-0.0559979 0.000240752 -0.000263306 0.0213254 -0.0271917 0.0346725)
(-0.0363657 0.000165693 -0.000165625 0.0181829 -0.0181828 0.0181828)
(-0.0155263 7.26798e-05 -4.18226e-05 0.0100094 -0.00743105 0.00551685)
(-0.00354169 1.41702e-05 -1.82621e-06 0.00282389 -0.00142372 0.000717791)
(-0.000367952 9.97919e-07 4.12022e-07 0.000340022 -9.74533e-05 2.79297e-05)
(-1.04959e-05 1.21428e-08 1.95284e-08 1.04104e-05 -9.43569e-07 8.5482e-08)
(0.035575 -2.07448e-05 -3.0273e-05 3.04132e-09 1.79611e-05 -0.035575)
(0.0354191 -6.09486e-05 -2.85936e-05 3.29018e-08 5.05336e-05 -0.0354191)
(0.0351591 -9.76476e-05 -2.54168e-05 1.13564e-07 7.45113e-05 -0.0351592)
(0.0348556 -0.000130052 -2.18309e-05 2.65842e-07 8.75264e-05 -0.0348558)
(0.0345674 -0.000158421 -1.86537e-05 4.92912e-07 8.98535e-05 -0.0345679)
(0.0343402 -0.000183162 -1.65274e-05 7.73406e-07 8.36916e-05 -0.0343409)
(0.034202 -0.000204817 -1.58731e-05 1.07427e-06 7.2262e-05 -0.0342031)
(0.034161 -0.000223877 -1.68899e-05 1.36531e-06 5.90921e-05 -0.0341623)
(0.0342087 -0.000240672 -1.95939e-05 1.62746e-06 4.75127e-05 -0.0342103)
(0.0343247 -0.000255338 -2.38513e-05 1.85236e-06 4.02411e-05 -0.0343265)
(0.0344814 -0.000267828 -2.94213e-05 2.03601e-06 3.90885e-05 -0.0344835)
(0.034649 -0.000277984 -3.59787e-05 2.17253e-06 4.4714e-05 -0.0346512)
(0.034798 -0.000285607 -4.31814e-05 2.25199e-06 5.66769e-05 -0.0348003)
(0.0349008 -0.000290542 -5.07253e-05 2.26234e-06 7.39888e-05 -0.0349031)
(0.0349322 -0.000292732 -5.83989e-05 2.19028e-06 9.59932e-05 -0.0349344)
(0.0348663 -0.000292234 -6.60418e-05 2.01601e-06 0.000123145 -0.0348683)
(0.034675 -0.000289127 -7.35412e-05 1.6972e-06 0.000157565 -0.0346767)
(0.0343349 -0.000283558 -8.06935e-05 1.15295e-06 0.000202334 -0.034336)
(0.0338632 -0.000276151 -8.76552e-05 2.52894e-07 0.000260515 -0.0338634)
(0.0331677 -0.000266546 -9.34999e-05 -1.22892e-06 0.000334745 -0.0331664)
(0.032197 -0.000254725 -9.73788e-05 -3.62249e-06 0.000426447 -0.0321934)
(0.0309059 -0.00024063 -9.86873e-05 -7.33959e-06 0.000534009 -0.0308986)
(0.0292454 -0.000224061 -9.65854e-05 -1.2787e-05 0.000651627 -0.0292327)
(0.0271776 -0.000204883 -9.07491e-05 -2.01797e-05 0.000768591 -0.0271574)
(0.0246805 -0.000182916 -8.15978e-05 -2.93509e-05 0.000870495 -0.0246511)
(0.0217389 -0.000157745 -7.01219e-05 -3.95124e-05 0.000939684 -0.0216994)
(0.0183213 -0.000128077 -5.70546e-05 -4.90242e-05 0.000955373 -0.0182723)
(0.0143603 -9.29693e-05 -4.16555e-05 -5.5257e-05 0.000894007 -0.014305)
(0.00977168 -5.98604e-05 -2.44458e-05 -5.36703e-05 0.000724619 -0.00971801)
(0.00457981 -2.87715e-05 -9.44673e-06 -3.59595e-05 0.000405201 -0.00454385)
(-0.00118861 8.1156e-06 1.89734e-06 1.33898e-05 -0.000125691 0.00117522)
(-0.00750747 5.82162e-05 8.34228e-06 0.000121836 -0.000950271 0.00738563)
(-0.0143075 0.000129658 9.3789e-06 0.000335728 -0.00216945 0.0139718)
(-0.0214735 0.000230073 7.11658e-06 0.000729549 -0.00389662 0.020744)
(-0.02887 0.00036411 8.5025e-06 0.00141608 -0.00624522 0.0274539)
(-0.0363934 0.00053091 2.64682e-05 0.00255606 -0.00931446 0.0338374)
(-0.044041 0.000722364 7.81833e-05 0.00436719 -0.013182 0.0396738)
(-0.0519694 0.000919543 0.000179472 0.00713696 -0.0179109 0.0448324)
(-0.0605073 0.00106265 0.000333162 0.0112458 -0.023561 0.0492615)
(-0.0700797 0.00105679 0.000449882 0.0171765 -0.0301618 0.0529032)
(-0.0804347 0.00085127 0.000322628 0.0253628 -0.0373791 0.0550719)
(-0.0877797 0.000550426 -7.97666e-05 0.0350097 -0.0429821 0.0527699)
(-0.0825286 0.000348892 -0.000348732 0.0412643 -0.0412643 0.0412643)
(-0.0559978 0.000263409 -0.00024064 0.0346725 -0.0271917 0.0213254)
(-0.022747 0.000128865 -5.17044e-05 0.0169877 -0.00989113 0.00575923)
(-0.0050565 2.67382e-05 1.53723e-06 0.004371 -0.00173101 0.000685498)
(-0.000536673 2.01056e-06 1.33322e-06 0.000510622 -0.000115348 2.60512e-05)
(-1.5515e-05 2.63024e-08 6.20284e-08 1.54356e-05 -1.10861e-06 7.93591e-08)
(0.065295 -2.74042e-05 -0.000340848 -1.65144e-08 4.29087e-05 -0.0652949)
(0.0652991 -7.99738e-05 -0.000344151 -1.24653e-07 0.000120974 -0.065299)
(0.0653046 -0.000127338 -0.000343118 -2.39715e-07 0.000179177 -0.0653043)
(0.065309 -0.000168591 -0.000342144 -2.45127e-07 0.000211662 -0.0653088)
(0.0653099 -0.000203389 -0.000341615 -8.90976e-08 0.000218286 -0.0653098)
(0.0653055 -0.000231824 -0.000341929 1.94733e-07 0.000203764 -0.0653057)
(0.0652948 -0.000254289 -0.000343462 5.24112e-07 0.000175804 -0.0652953)
(0.0652777 -0.000271297 -0.000346553 8.18719e-07 0.000143351 -0.0652785)
(0.0652549 -0.000283345 -0.000351465 1.03201e-06 0.000115057 -0.0652559)
(0.0652276 -0.000290857 -0.000358346 1.15308e-06 9.79545e-05 -0.0652288)
(0.0651973 -0.00029416 -0.00036723 1.18636e-06 9.66266e-05 -0.0651985)
(0.0651656 -0.000293524 -0.000378016 1.12925e-06 0.000112759 -0.0651667)
(0.0651344 -0.000289222 -0.000390566 9.62033e-07 0.000145509 -0.0651353)
(0.0651057 -0.000281564 -0.000404816 6.49466e-07 0.000193004 -0.0651063)
(0.0650817 -0.000270911 -0.000420884 1.37929e-07 0.000254467 -0.0650818)
(0.0650647 -0.000257698 -0.000439089 -6.67511e-07 0.00033203 -0.065064)
(0.0650571 -0.00024212 -0.00046001 -1.96123e-06 0.00043204 -0.0650551)
(0.0650605 -0.000224117 -0.000483821 -4.10288e-06 0.000563566 -0.0650564)
(0.0650745 -0.000204435 -0.0005104 -7.68428e-06 0.000736341 -0.0650668)
(0.0651045 -0.000183303 -0.000540588 -1.37198e-05 0.000962792 -0.0650908)
(0.0651535 -0.000160304 -0.000574013 -2.38087e-05 0.00125561 -0.0651296)
(0.0652237 -0.000134838 -0.000610694 -4.0264e-05 0.00162564 -0.0651834)
(0.0653178 -0.000105953 -0.000649721 -6.61812e-05 0.00208067 -0.0652516)
(0.0654381 -7.28402e-05 -0.000690591 -0.000105318 0.00262384 -0.0653327)
(0.0655858 -3.49125e-05 -0.000733807 -0.000162118 0.00325634 -0.0654237)
(0.0657624 7.26401e-06 -0.00078137 -0.000241842 0.00397964 -0.0655205)
(0.065971 5.12132e-05 -0.000835238 -0.000351229 0.00479942 -0.0656197)
(0.065587 9.58664e-05 -0.000868305 -0.000496276 0.00568196 -0.0650907)
(0.0610822 0.000125992 -0.000763957 -0.000653191 0.00628112 -0.060429)
(0.056147 0.000151315 -0.000656231 -0.00084904 0.00685067 -0.055298)
(0.0509014 0.000169163 -0.000553172 -0.00108864 0.00736275 -0.0498127)
(0.0455071 0.000180097 -0.000457736 -0.00137606 0.00779165 -0.044131)
(0.040206 0.000184222 -0.000374726 -0.0017155 0.00812492 -0.0384905)
(0.0352917 0.000181129 -0.000308978 -0.00211414 0.00837409 -0.0331775)
(0.0310259 0.000169474 -0.000263285 -0.00258585 0.00857461 -0.02844)
(0.0274978 0.000146666 -0.000237283 -0.0031459 0.00875154 -0.0243519)
(0.0244086 0.000108734 -0.000226288 -0.00376659 0.00881662 -0.020642)
(0.0207459 5.28312e-05 -0.000216716 -0.00422982 0.00835784 -0.0165161)
(0.0143656 2.77376e-06 -0.000173899 -0.00378485 0.00632873 -0.0105808)
(0.00148958 -1.78824e-06 -1.80488e-05 -0.000495813 0.000702042 -0.000993765)
(-0.0242007 5.68871e-05 0.000155746 0.00995127 -0.0119087 0.0142495)
(-0.0622502 9.71951e-05 -9.70856e-05 0.0311251 -0.0311251 0.0311251)
(-0.0877797 7.99281e-05 -0.000550258 0.05277 -0.0429821 0.0350097)
(-0.0698006 0.000146631 -0.000382352 0.0496159 -0.0316447 0.0201847)
(-0.0298034 0.000133395 -6.561e-05 0.02435 -0.0115228 0.00545337)
(-0.00684075 3.64309e-05 7.93694e-06 0.00619698 -0.00199738 0.000643771)
(-0.000742859 3.06613e-06 3.0408e-06 0.000718446 -0.000132481 2.44126e-05)
(-2.16042e-05 4.21663e-08 1.45727e-07 2.15306e-05 -1.26758e-06 7.36108e-08)
(0.064178 -1.58843e-05 0.000244147 -3.91445e-08 5.25115e-05 -0.0641779)
(0.0641776 -4.52647e-05 0.000242563 -3.08439e-07 0.000147599 -0.0641773)
(0.064175 -6.9944e-05 0.000241937 -6.6467e-07 0.000217748 -0.0641744)
(0.0641688 -8.95065e-05 0.000240696 -9.00075e-07 0.000256077 -0.0641679)
(0.0641575 -0.000103232 0.000238487 -9.12231e-07 0.00026262 -0.0641566)
(0.0641403 -0.000111147 0.000234933 -7.35017e-07 0.000243511 -0.0641396)
(0.0641168 -0.000113609 0.000229672 -4.79613e-07 0.000208534 -0.0641163)
(0.0640873 -0.000111111 0.000222367 -2.5501e-07 0.000168912 -0.064087)
(0.0640525 -0.000104144 0.000212754 -1.19768e-07 0.000135421 -0.0640523)
(0.0640133 -9.31566e-05 0.000200692 -8.13607e-08 0.000116799 -0.0640132)
(0.063971 -7.85182e-05 0.00018616 -1.29741e-07 0.00011881 -0.0639709)
(0.0639271 -6.05193e-05 0.000169301 -2.73848e-07 0.000143842 -0.0639269)
(0.0638835 -3.94049e-05 0.000150304 -5.5908e-07 0.000191428 -0.0638829)
(0.0638423 -1.53797e-05 0.000129286 -1.06792e-06 0.000260035 -0.0638412)
(0.0638064 1.14065e-05 0.000106171 -1.92842e-06 0.000349491 -0.0638044)
(0.0637784 4.07722e-05 8.06172e-05 -3.35709e-06 0.000463009 -0.0637751)
(0.0637612 7.28829e-05 5.19106e-05 -5.75569e-06 0.00060856 -0.0637555)
(0.0637567 0.000108116 1.9884e-05 -9.82437e-06 0.000797023 -0.0637469)
(0.0637653 0.000146033 -1.54468e-05 -1.67066e-05 0.0010404 -0.0637486)
(0.0637912 0.000186976 -5.51349e-05 -2.82735e-05 0.00135354 -0.063763)
(0.0638367 0.0002317 -9.8837e-05 -4.73585e-05 0.00175113 -0.0637893)
(0.0639029 0.00028129 -0.000146895 -7.79666e-05 0.00224578 -0.063825)
(0.0639914 0.000337228 -0.000198334 -0.000125364 0.00284661 -0.0638661)
(0.0641032 0.000400475 -0.000252518 -0.000195908 0.00355745 -0.0639073)
(0.064239 0.000471206 -0.000309496 -0.000297185 0.00438032 -0.0639419)
(0.0644 0.000546856 -0.000369955 -0.000438539 0.00531899 -0.0639615)
(0.0645891 0.00061774 -0.000435077 -0.000632388 0.00638293 -0.0639568)
(0.0648126 0.000673933 -0.000504942 -0.000896659 0.00759266 -0.0639159)
(0.0650667 0.000749063 -0.000567036 -0.0012608 0.0089913 -0.0638059)
(0.0653263 0.00086888 -0.000627739 -0.00176446 0.0106137 -0.0635619)
(0.0655698 0.00101589 -0.000689086 -0.00245587 0.0124752 -0.0631139)
(0.0657712 0.00118036 -0.000745895 -0.00339564 0.01458 -0.0623756)
(0.0659006 0.0013485 -0.000791919 -0.00465358 0.0169087 -0.0612471)
(0.0659283 0.00149868 -0.000821632 -0.00630276 0.0194094 -0.0596256)
(0.0658347 0.0016021 -0.000832844 -0.00841108 0.0219954 -0.0574236)
(0.0656229 0.00162951 -0.000830945 -0.011033 0.0245523 -0.0545899)
(0.065336 0.00156162 -0.000833048 -0.0142062 0.026954 -0.0511298)
(0.0650849 0.00138478 -0.000870128 -0.0179596 0.0290889 -0.0471253)
(0.0651026 0.00113113 -0.00101127 -0.0223398 0.0309036 -0.0427628)
(0.065797 0.00106232 -0.00124032 -0.0275189 0.0324547 -0.0382782)
(0.0368921 0.000449511 -0.00044957 -0.0184461 0.0184461 -0.0184461)
(-0.0242011 -0.000155707 -5.68494e-05 0.0142497 -0.0119088 0.0099514)
(-0.0804348 -0.000322487 -0.000851126 0.055072 -0.0373791 0.0253628)
(-0.0788389 -0.000182305 -0.000700144 0.0615653 -0.032612 0.0172736)
(-0.0369656 3.39576e-05 -0.000121159 0.0320309 -0.0125712 0.00493478)
(-0.00891453 3.16058e-05 1.27515e-05 0.00831867 -0.00222632 0.000595857)
(-0.000988329 3.37417e-06 5.26907e-06 0.000965605 -0.000148235 2.27241e-05)
(-2.88098e-05 4.85056e-08 2.66989e-07 2.87428e-05 -1.4136e-06 6.70046e-08)
(0.0638375 -3.86408e-06 0.000413535 -6.22368e-08 6.31089e-05 -0.0638374)
(0.0638322 -1.00139e-05 0.000415665 -4.90275e-07 0.000177071 -0.0638317)
(0.063822 -1.25751e-05 0.000416372 -1.06228e-06 0.000260525 -0.063821)
(0.063806 -1.07471e-05 0.000416394 -1.46172e-06 0.000305447 -0.0638045)
(0.063784 -3.82461e-06 0.000414711 -1.52905e-06 0.000312258 -0.0637825)
(0.063756 8.32061e-06 0.000410427 -1.3063e-06 0.000288762 -0.0637547)
(0.0637224 2.54728e-05 0.00040286 -9.46876e-07 0.0002471 -0.0637214)
(0.0636835 4.72428e-05 0.00039157 -5.98912e-07 0.00020104 -0.0636829)
(0.0636401 7.32119e-05 0.000376383 -3.38113e-07 0.000163726 -0.0636398)
(0.0635929 0.000102962 0.000357392 -1.7181e-07 0.00014583 -0.0635928)
(0.0635428 0.000136155 0.000334898 -9.17295e-08 0.000154546 -0.0635427)
(0.0634911 0.000172576 0.000309415 -1.29963e-07 0.000193241 -0.063491)
(0.0634398 0.000212119 0.000281509 -3.8769e-07 0.000262142 -0.0634394)
(0.0633913 0.000254804 0.000251627 -1.04146e-06 0.000360405 -0.0633903)
(0.063349 0.000300774 0.000219956 -2.364e-06 0.000488774 -0.0633466)
(0.063316 0.000350093 0.000186339 -4.80242e-06 0.000651761 -0.0633112)