/*--------------------------------*- C++ -*----------------------------------*\
| =========                 |                                                 |
| \\      /  F ield         | OpenFOAM: The Open Source CFD Toolbox           |
|  \\    /   O peration     | Version:  2412                                  |
|   \\  /    A nd           | Website:  www.openfoam.com                      |
|    \\/     M anipulation  |                                                 |
\*---------------------------------------------------------------------------*/
FoamFile
{
    version     2.0;
    format      ascii;
    arch        "LSB;label=32;scalar=64";
    class       volScalarField;
    location    "2130";
    object      I1;
}
// * * * * * * * * * * * * * * * * * * * * * * * * * * * * * * * * * * * * * //

dimensions      [0 0 0 0 0 0 0];

internalField   nonuniform List<scalar> 
2304
(
1.99074e-05
1.98626e-05
1.97844e-05
1.96874e-05
1.95858e-05
1.94911e-05
1.94103e-05
1.93462e-05
1.9298e-05
1.92618e-05
1.92323e-05
1.9204e-05
1.91722e-05
1.91335e-05
1.90864e-05
1.90296e-05
1.89616e-05
1.8879e-05
1.8777e-05
1.8649e-05
1.84863e-05
1.828e-05
1.80209e-05
1.77016e-05
1.73171e-05
1.68658e-05
1.63514e-05
1.5783e-05
1.51671e-05
1.44935e-05
1.37543e-05
1.29438e-05
1.2057e-05
1.10904e-05
1.00454e-05
8.93114e-06
7.76798e-06
6.58868e-06
5.43567e-06
4.35382e-06
3.38013e-06
2.53458e-06
1.82011e-06
1.23126e-06
7.61575e-07
4.06307e-07
1.63617e-07
3.76475e-08
0.000680501
0.00067898
0.000676323
0.000673026
0.000669573
0.000666348
0.000663594
0.000661408
0.000659758
0.000658517
0.000657505
0.000656531
0.000655435
0.000654106
0.000652487
0.00065054
0.000648211
0.000645389
0.000641869
0.000637463
0.000631883
0.000624826
0.000615982
0.000605102
0.000592012
0.000576653
0.00055913
0.000539744
0.000518738
0.000495751
0.000470528
0.000442893
0.000412685
0.000379793
0.000344251
0.000306348
0.000266739
0.000226488
0.000187007
0.000149764
0.000116271
8.7332e-05
6.30539e-05
4.32089e-05
2.74754e-05
1.51864e-05
4.89888e-06
1.63617e-07
0.0056145
0.00560341
0.00558402
0.00555993
0.00553462
0.00551088
0.00549046
0.00547407
0.00546146
0.00545171
0.00544349
0.00543541
0.00542626
0.00541523
0.00540182
0.00538571
0.00536643
0.00534315
0.0053157
0.00528153
0.00523842
0.0051841
0.0051162
0.00503278
0.00493246
0.00481452
0.00467931
0.00452865
0.00436445
0.00418366
0.00398432
0.00376503
0.00352439
0.00326125
0.00297543
0.00266849
0.00234465
0.0020113
0.00167929
0.00136348
0.00107365
0.000818748
0.000601974
0.000419742
0.000259628
0.0001081
1.51864e-05
4.06306e-07
0.0191399
0.0191129
0.0190655
0.0190067
0.018945
0.0188872
0.0188377
0.0187982
0.0187681
0.0187449
0.0187255
0.0187062
0.0186838
0.0186563
0.018622
0.0185799
0.0185286
0.0184659
0.0183926
0.0183008
0.0181847
0.0180383
0.0178551
0.0176297
0.0173579
0.0170365
0.0166641
0.0162418
0.0157725
0.0152471
0.0146594
0.0140037
0.0132738
0.0124637
0.0115691
0.0105895
0.00952968
0.00840255
0.00723222
0.00606068
0.00492215
0.003856
0.00286755
0.00190969
0.000959351
0.000259628
2.74754e-05
7.61575e-07
0.0352471
0.0352197
0.035172
0.0351133
0.0350526
0.0349971
0.0349513
0.0349168
0.034893
0.0348772
0.0348656
0.0348544
0.0348397
0.0348188
0.0347896
0.0347501
0.0346981
0.034631
0.0345505
0.0344461
0.0343111
0.0341385
0.0339207
0.0336509
0.0333237
0.0329342
0.0324771
0.0319449
0.0313283
0.0306225
0.0298186
0.0289063
0.0278748
0.0267137
0.0254134
0.0239648
0.0223569
0.0205744
0.0185974
0.0164053
0.0139595
0.011247
0.00819277
0.00483081
0.00190969
0.000419742
4.32088e-05
1.23126e-06
0.0451844
0.045169
0.0451432
0.0451131
0.0450845
0.045062
0.0450482
0.0450442
0.045049
0.0450605
0.0450761
0.0450928
0.0451076
0.0451179
0.045121
0.0451144
0.0450954
0.0450616
0.0450146
0.0449452
0.044848
0.044718
0.0445498
0.0443386
0.0440811
0.0437741
0.0434122
0.0429853
0.0424804
0.0418947
0.0412243
0.0404638
0.0396113
0.0386692
0.0376419
0.0365288
0.0353107
0.0339303
0.0322619
0.0300455
0.026802
0.0220212
0.015463
0.00819277
0.00286755
0.000601973
6.30538e-05
1.82011e-06
0.04805
0.04805
0.04805
0.04805
0.04805
0.04805
0.04805
0.04805
0.04805
0.04805
0.04805
0.04805
0.04805
0.04805
0.04805
0.04805
0.04805
0.04805
0.04805
0.04805
0.04805
0.04805
0.04805
0.04805
0.04805
0.04805
0.04805
0.0479973
0.0475939
0.0471449
0.0466592
0.0461501
0.0456398
0.0451573
0.0447307
0.0443721
0.0440536
0.0436703
0.0429866
0.0415383
0.0382976
0.0318934
0.0220212
0.011247
0.00385599
0.000818748
8.73319e-05
2.53458e-06
0.04805
0.04805
0.04805
0.04805
0.04805
0.04805
0.04805
0.04805
0.04805
0.04805
0.04805
0.04805
0.04805
0.04805
0.04805
0.04805
0.04805
0.04805
0.04805
0.04805
0.04805
0.04805
0.04805
0.04805
0.04805
0.04805
0.04805
0.04805
0.04805
0.04805
0.04805
0.04805
0.04805
0.04805
0.04805
0.04805
0.04805
0.04805
0.04805
0.04805
0.0453182
0.0382976
0.0268019
0.0139595
0.00492214
0.00107365
0.000116271
3.38013e-06
0.04805
0.04805
0.04805
0.04805
0.04805
0.04805
0.04805
0.04805
0.04805
0.04805
0.04805
0.04805
0.04805
0.04805
0.04805
0.04805
0.04805
0.04805
0.04805
0.04805
0.04805
0.04805
0.04805
0.04805
0.04805
0.04805
0.04805
0.04805
0.04805
0.04805
0.04805
0.04805
0.04805
0.04805
0.04805
0.04805
0.04805
0.04805
0.04805
0.04805
0.04805
0.0415382
0.0300454
0.0164052
0.00606067
0.00136348
0.000149764
4.35382e-06
0.04805
0.04805
0.04805
0.04805
0.04805
0.04805
0.04805
0.04805
0.04805
0.04805
0.04805
0.04805
0.04805
0.04805
0.04805
0.04805
0.04805
0.04805
0.04805
0.04805
0.04805
0.04805
0.04805
0.04805
0.04805
0.04805
0.04805
0.04805
0.04805
0.04805
0.04805
0.04805
0.04805
0.04805
0.04805
0.04805
0.04805
0.04805
0.04805
0.04805
0.04805
0.0429865
0.0322618
0.0185974
0.0072322
0.00167929
0.000187007
5.43566e-06
0.04805
0.04805
0.04805
0.04805
0.04805
0.04805
0.04805
0.04805
0.04805
0.04805
0.04805
0.04805
0.04805
0.04805
0.04805
0.04805
0.04805
0.04805
0.04805
0.04805
0.04805
0.04805
0.04805
0.04805
0.04805
0.04805
0.04805
0.04805
0.04805
0.04805
0.04805
0.04805
0.04805
0.04805
0.04805
0.04805
0.04805
0.04805
0.04805
0.04805
0.04805
0.0436702
0.0339302
0.0205743
0.00840253
0.0020113
0.000226488
6.58867e-06
0.04805
0.04805
0.04805
0.04805
0.04805
0.04805
0.04805
0.04805
0.04805
0.04805
0.04805
0.04805
0.04805
0.04805
0.04805
0.04805
0.04805
0.04805
0.04805
0.04805
0.04805
0.04805
0.04805
0.04805
0.04805
0.04805
0.04805
0.04805
0.04805
0.04805
0.04805
0.04805
0.04805
0.04805
0.04805
0.04805
0.04805
0.04805
0.04805
0.04805
0.04805
0.0440535
0.0353106
0.0223568
0.00952967
0.00234465
0.000266739
7.76799e-06
0.04805
0.04805
0.04805
0.04805
0.04805
0.04805
0.04805
0.04805
0.04805
0.04805
0.04805
0.04805
0.04805
0.04805
0.04805
0.04805
0.04805
0.04805
0.04805
0.04805
0.04805
0.04805
0.04805
0.04805
0.04805
0.04805
0.04805
0.04805
0.04805
0.04805
0.04805
0.04805
0.04805
0.04805
0.04805
0.04805
0.04805
0.04805
0.04805
0.04805
0.04805
0.044372
0.0365287
0.0239648
0.0105895
0.0026685
0.000306349
8.93116e-06
0.04805
0.04805
0.04805
0.04805
0.04805
0.04805
0.04805
0.04805
0.04805
0.04805
0.04805
0.04805
0.04805
0.04805
0.04805
0.04805
0.04805
0.04805
0.04805
0.04805
0.04805
0.04805
0.04805
0.04805
0.04805
0.04805
0.04805
0.04805
0.04805
0.04805
0.04805
0.04805
0.04805
0.04805
0.04805
0.04805
0.04805
0.04805
0.04805
0.04805
0.04805
0.0447307
0.0376419
0.0254134
0.0115692
0.00297544
0.000344252
1.00455e-05
0.04805
0.04805
0.04805
0.04805
0.04805
0.04805
0.04805
0.04805
0.04805
0.04805
0.04805
0.04805
0.04805
0.04805
0.04805
0.04805
0.04805
0.04805
0.04805
0.04805
0.04805
0.04805
0.04805
0.04805
0.04805
0.04805
0.04805
0.04805
0.04805
0.04805
0.04805
0.04805
0.04805
0.04805
0.04805
0.04805
0.04805
0.04805
0.04805
0.04805
0.04805
0.0451573
0.0386693
0.0267138
0.0124637
0.00326127
0.000379796
1.10905e-05
0.04805
0.04805
0.04805
0.04805
0.04805
0.04805
0.04805
0.04805
0.04805
0.04805
0.04805
0.04805
0.04805
0.04805
0.04805
0.04805
0.04805
0.04805
0.04805
0.04805
0.04805
0.0478873
0.0477648
0.0477189
0.0477555
0.0478855
0.04805
0.04805
0.04805
0.04805
0.04805
0.04805
0.04805
0.04805
0.04805
0.04805
0.04805
0.04805
0.04805
0.04805
0.04805
0.0456399
0.0396114
0.027875
0.0132739
0.00352442
0.00041269
1.20571e-05
0.04805
0.04805
0.04805
0.04805
0.04805
0.04805
0.04805
0.04805
0.04805
0.04805
0.04805
0.04805
0.04805
0.04805
0.04805
0.04805
0.04805
0.04805
0.04805
0.0478143
0.0475882
0.0474388
0.0473805
0.0474003
0.0474895
0.0476352
0.0478285
0.04805
0.04805
0.04805
0.04805
0.04805
0.04805
0.04805
0.04805
0.04805
0.04805
0.04805
0.04805
0.04805
0.04805
0.0461502
0.040464
0.0289065
0.0140039
0.00376509
0.000442901
1.2944e-05
0.04805
0.04805
0.04805
0.04805
0.04805
0.04805
0.04805
0.04805
0.04805
0.04805
0.04805
0.04805
0.04805
0.04805
0.04805
0.04805
0.04805
0.0478724
0.0475591
0.0473126
0.0471466
0.0470451
0.047032
0.0471012
0.0472397
0.0474299
0.0476416
0.0478607
0.04805
0.04805
0.04805
0.04805
0.04805
0.04805
0.04805
0.04805
0.04805
0.04805
0.04805
0.04805
0.04805
0.0466593
0.0412245
0.0298189
0.0146597
0.0039844
0.000470539
1.37546e-05
0.04805
0.04805
0.04805
0.04805
0.04805
0.04805
0.04805
0.04805
0.04805
0.04805
0.04805
0.04805
0.04805
0.04805
0.04805
0.0480398
0.0476596
0.0473217
0.0470464
0.0468242
0.0466883
0.0466392
0.0466791
0.0467975
0.0469778
0.0471998
0.0474426
0.047672
0.0478924
0.04805
0.04805
0.04805
0.04805
0.04805
0.04805
0.04805
0.04805
0.04805
0.04805
0.04805
0.04805
0.0471451
0.041895
0.0306229
0.0152474
0.00418377
0.000495765
1.44939e-05
0.04805
0.04805
0.04805
0.04805
0.04805
0.04805
0.04805
0.04805
0.04805
0.04805
0.04805
0.04805
0.04805
0.04805
0.0478935
0.0474627
0.0470856
0.04676
0.0464945
0.0463123
0.0462254
0.0462324
0.0463247
0.0464876
0.0467027
0.0469503
0.0472108
0.0474651
0.0476857
0.0478923
0.04805
0.04805
0.04805
0.04805
0.04805
0.04805
0.04805
0.04805
0.04805
0.04805
0.04805
0.0475941
0.0424808
0.0313288
0.0157729
0.00436459
0.000518757
1.51677e-05
0.04805
0.04805
0.04805
0.04805
0.04805
0.04805
0.04805
0.04805
0.04805
0.04805
0.04805
0.04805
0.04805
0.0477564
0.0472893
0.046867
0.0464722
0.0461558
0.0459271
0.0457982
0.0457689
0.0458306
0.0459692
0.0461681
0.0464098
0.0466771
0.0469528
0.0472201
0.0474649
0.0476718
0.0478603
0.04805
0.04805
0.04805
0.04805
0.04805
0.04805
0.04805
0.04805
0.04805
0.04805
0.0479976
0.0429858
0.0319455
0.0162423
0.00452883
0.000539767
1.57837e-05
0.04805
0.04805
0.04805
0.04805
0.04805
0.04805
0.04805
0.04805
0.04805
0.04805
0.04805
0.04805
0.0476323
0.0471216
0.0466406
0.0461942
0.0458184
0.0455399
0.0453659
0.0452965
0.0453242
0.0454355
0.0456136
0.0458416
0.0461036
0.0463855
0.0466733
0.0469525
0.0472103
0.0474421
0.0476411
0.0478276
0.04805
0.04805
0.04805
0.04805
0.04805
0.04805
0.04805
0.04805
0.04805
0.04805
0.0434126
0.0324778
0.0166646
0.00467952
0.000559159
1.63522e-05
0.04805
0.04805
0.04805
0.04805
0.04805
0.04805
0.04805
0.04805
0.04805
0.04805
0.04805
0.0475223
0.0469675
0.0464265
0.0459227
0.0454917
0.0451593
0.0449366
0.0448243
0.0448156
0.0448971
0.0450521
0.0452631
0.0455144
0.0457928
0.0460868
0.0463852
0.0466766
0.0469497
0.047199
0.0474289
0.0476343
0.0478839
0.04805
0.04805
0.04805
0.04805
0.04805
0.04805
0.04805
0.04805
0.04805
0.0437746
0.032935
0.0170372
0.00481476
0.000576686
1.68667e-05
0.04805
0.04805
0.04805
0.04805
0.04805
0.04805
0.04805
0.04805
0.04805
0.0480444
0.047426
0.0468299
0.0462304
0.0456679
0.0451803
0.0447932
0.0445191
0.0443612
0.0443135
0.0443631
0.0444929
0.0446851
0.0449231
0.0451937
0.0454865
0.0457925
0.0461032
0.0464091
0.0467018
0.0469767
0.0472385
0.0474882
0.0477538
0.04805
0.04805
0.04805
0.04805
0.04805
0.04805
0.04805
0.04805
0.04805
0.0440817
0.0333245
0.0173586
0.00493272
0.000592047
1.73181e-05
0.04805
0.04805
0.04805
0.04805
0.04805
0.04805
0.04805
0.04805
0.0479953
0.0473418
0.0467092
0.0460554
0.0454356
0.0448908
0.0444474
0.0441204
0.0439145
0.0438252
0.0438403
0.043943
0.0441146
0.0443378
0.0445985
0.0448862
0.0451935
0.045514
0.0458409
0.0461672
0.0464864
0.0467962
0.0470998
0.0473989
0.0477171
0.04805
0.04805
0.04805
0.04805
0.04805
0.04805
0.04805
0.04805
0.04805
0.0443392
0.0336517
0.0176304
0.00503305
0.000605138
1.77026e-05
0.04805
0.04805
0.04805
0.04805
0.04805
0.04805
0.04805
0.0479326
0.0472625
0.0466031
0.045901
0.0452277
0.044627
0.0441274
0.043746
0.0434901
0.0433566
0.0433347
0.0434077
0.0435568
0.0437635
0.0440127
0.0442934
0.0445983
0.0449228
0.0452625
0.0456127
0.0459681
0.0463234
0.0466776
0.0470304
0.047379
0.047763
0.04805
0.04805
0.04805
0.04805
0.04805
0.04805
0.04805
0.04805
0.04805
0.0445503
0.0339215
0.0178558
0.00511646
0.000616017
1.80219e-05
0.04805
0.04805
0.04805
0.04805
0.04805
0.04805
0.0478381
0.0471695
0.0464935
0.0457611
0.0450418
0.0443894
0.0438351
0.0433996
0.0430921
0.0429121
0.0428504
0.0428911
0.0430153
0.0432037
0.0434399
0.043712
0.0440126
0.0443375
0.0446846
0.0450514
0.0454345
0.0458294
0.0462309
0.0466375
0.0470434
0.0474371
0.0478854
0.04805
0.04805
0.04805
0.04805
0.04805
0.04805
0.04805
0.04805
0.04805
0.0447185
0.0341392
0.0180389
0.00518433
0.000624857
1.82809e-05
0.04805
0.04805
0.04805
0.04805
0.04805
0.0476877
0.0470483
0.0463723
0.0456222
0.0448698
0.0441731
0.0435685
0.0430806
0.0427218
0.042494
0.0423901
0.0423959
0.0424928
0.0426609
0.0428827
0.043145
0.0434398
0.0437633
0.0441143
0.0444923
0.0448963
0.0453231
0.0457676
0.0462239
0.0466867
0.047145
0.0475864
0.04805
0.04805
0.04805
0.04805
0.04805
0.04805
0.04805
0.04805
0.04805
0.04805
0.0448484
0.0343117
0.0181852
0.00523862
0.000631909
1.84871e-05
0.04805
0.04805
0.04805
0.0479727
0.047463
0.0468833
0.0462235
0.0454704
0.0446975
0.0439671
0.0433196
0.0427841
0.0423762
0.042101
0.0419541
0.0419232
0.0419907
0.0421367
0.0423427
0.0425944
0.0428826
0.0432035
0.0435565
0.0439426
0.0443625
0.0448148
0.0452954
0.0457969
0.0463108
0.0468226
0.0473111
0.0478127
0.04805
0.04805
0.04805
0.04805
0.04805
0.04805
0.04805
0.04805
0.04805
0.04805
0.0449455
0.0344465
0.0183012
0.00528167
0.000637481
1.86495e-05
0.0480172
0.0478696
0.047588
0.0471754
0.0466697
0.046029
0.0452857
0.0445055
0.0437533
0.0430733
0.042498
0.0420465
0.0417272
0.0415385
0.0414708
0.0415081
0.041631
0.0418205
0.0420611
0.0423427
0.0426608
0.0430151
0.0434074
0.0438399
0.0443129
0.0448235
0.0453648
0.0459259
0.0464932
0.0470452
0.0475577
0.04805
0.04805
0.04805
0.04805
0.04805
0.04805
0.04805
0.04805
0.04805
0.04805
0.04805
0.0450149
0.0345507
0.0183928
0.00531578
0.000641879
1.87773e-05
0.0472956
0.0471419
0.0468448
0.0463955
0.0457703
0.0450421
0.0442668
0.0435056
0.0428055
0.0422016
0.0417158
0.0413591
0.0411333
0.0410315
0.0410401
0.0411408
0.0413144
0.0415446
0.0418205
0.0421367
0.0424927
0.0428909
0.0433344
0.0438248
0.0443606
0.0449358
0.0455389
0.0461547
0.0467589
0.0473206
0.0478714
0.04805
0.04805
0.04805
0.04805
0.04805
0.04805
0.04805
0.04805
0.04805
0.04805
0.04805
0.0450617
0.0346311
0.0184659
0.00534317
0.000645391
1.88791e-05
0.0466137
0.0463938
0.045983
0.04541
0.0447056
0.0439455
0.0431877
0.0424814
0.0418631
0.0413562
0.0409736
0.0407198
0.0405909
0.0405759
0.0406581
0.0408189
0.0410416
0.0413144
0.041631
0.0419907
0.0423958
0.0428502
0.0433563
0.0439141
0.0445186
0.0451585
0.0458176
0.0464713
0.0470848
0.0476588
0.04805
0.04805
0.04805
0.04805
0.04805
0.04805
0.04805
0.04805
0.04805
0.04805
0.04805
0.04805
0.0450955
0.0346981
0.0185285
0.0053664
0.000648205
1.89614e-05
0.0456499
0.0453727
0.0448745
0.0442245
0.0434931
0.0427512
0.0420529
0.0414364
0.0409256
0.0405339
0.0402671
0.0401237
0.0400952
0.0401673
0.0403224
0.0405438
0.0408189
0.0411408
0.0415081
0.0419232
0.04239
0.042912
0.0434898
0.04412
0.0447928
0.0454912
0.0461936
0.0468663
0.0474622
0.0480393
0.04805
0.04805
0.04805
0.04805
0.04805
0.04805
0.04805
0.04805
0.04805
0.04805
0.04805
0.04805
0.0451144
0.03475
0.0185797
0.00538562
0.000650527
1.90292e-05
0.0443819
0.0440642
0.0435157
0.0428414
0.0421315
0.0414562
0.0408591
0.0403647
0.0399857
0.0397274
0.0395893
0.0395648
0.0396418
0.039804
0.0400352
0.0403224
0.0406581
0.0410402
0.0414708
0.0419541
0.042494
0.043092
0.0437459
0.0444472
0.04518
0.0459223
0.0466403
0.047289
0.0478932
0.04805
0.04805
0.04805
0.04805
0.04805
0.04805
0.04805
0.04805
0.04805
0.04805
0.04805
0.04805
0.04805
0.0451208
0.0347893
0.0186217
0.0054017
0.000652471
1.90859e-05
0.0427781
0.0424426
0.0418867
0.0412431
0.0406111
0.0400518
0.0395955
0.0392547
0.0390327
0.0389275
0.0389331
0.0390385
0.0392288
0.0394884
0.039804
0.0401674
0.0405759
0.0410316
0.0415385
0.0421011
0.0427219
0.0433996
0.0441273
0.0448907
0.0456678
0.0464264
0.0471215
0.0477563
0.04805
0.04805
0.04805
0.04805
0.04805
0.04805
0.04805
0.04805
0.04805
0.04805
0.04805
0.04805
0.04805
0.04805
0.0451177
0.0348185
0.0186559
0.00541509
0.000654087
1.9133e-05
0.0407897
0.0404714
0.0399662
0.0394167
0.0389195
0.0385239
0.0382479
0.0380935
0.0380557
0.0381262
0.0382936
0.0385434
0.0388597
0.0392289
0.0396418
0.0400953
0.0405911
0.0411334
0.0417273
0.0423764
0.0430808
0.0438352
0.0446271
0.0454357
0.0462305
0.0469676
0.0476324
0.04805
0.04805
0.04805
0.04805
0.04805
0.04805
0.04805
0.04805
0.04805
0.04805
0.04805
0.04805
0.04805
0.04805
0.04805
0.0451074
0.0348393
0.0186835
0.00542612
0.000655415
1.91716e-05
0.0383924
0.038132
0.0377401
0.0373493
0.0370437
0.0368596
0.0368044
0.0368711
0.0370478
0.0373199
0.037671
0.038084
0.0385434
0.0390385
0.0395649
0.0401238
0.04072
0.0413593
0.0420467
0.0427842
0.0435687
0.0443896
0.0452279
0.0460556
0.04683
0.0475225
0.04805
0.04805
0.04805
0.04805
0.04805
0.04805
0.04805
0.04805
0.04805
0.04805
0.04805
0.04805
0.04805
0.04805
0.04805
0.04805
0.0450926
0.034854
0.0187058
0.00543528
0.000656514
1.92035e-05
0.0355764
0.0354172
0.0352028
0.0350356
0.0349785
0.0350547
0.0352621
0.0355868
0.0360104
0.0365127
0.0370726
0.0376711
0.0382937
0.0389332
0.0395894
0.0402673
0.0409738
0.041716
0.0424981
0.0433198
0.0441733
0.045042
0.0459012
0.0467094
0.047426
0.04805
0.04805
0.04805
0.04805
0.04805
0.04805
0.04805
0.04805
0.04805
0.04805
0.04805
0.04805
0.04805
0.04805
0.04805
0.04805
0.04805
0.045076
0.0348654
0.0187252
0.00544339
0.00065749
1.92319e-05
0.0323559
0.0323398
0.0323653
0.0324859
0.0327349
0.0331203
0.0336324
0.034252
0.0349556
0.0357175
0.0365127
0.03732
0.0381263
0.0389277
0.0397276
0.0405341
0.0413563
0.0422017
0.0430734
0.0439673
0.04487
0.0457613
0.0466032
0.0473419
0.0480444
0.04805
0.04805
0.04805
0.04805
0.04805
0.04805
0.04805
0.04805
0.04805
0.04805
0.04805
0.04805
0.04805
0.04805
0.04805
0.04805
0.04805
0.0450604
0.034877
0.0187448
0.00545164
0.000658506
1.92615e-05
0.0287692
0.0289353
0.0292598
0.0297314
0.0303434
0.0310859
0.0319428
0.0328919
0.0339062
0.0349557
0.0360105
0.0370479
0.0380558
0.0390328
0.0399859
0.0409257
0.0418632
0.0428056
0.0437533
0.0446976
0.0456223
0.0464935
0.0472625
0.0479953
0.04805
0.04805
0.04805
0.04805
0.04805
0.04805
0.04805
0.04805
0.04805
0.04805
0.04805
0.04805
0.04805
0.04805
0.04805
0.04805
0.04805
0.04805
0.0450488
0.0348929
0.018768
0.00546142
0.000659752
1.92978e-05
0.0248733
0.0252572
0.0259369
0.0268205
0.0278498
0.0289937
0.0302312
0.0315401
0.0328919
0.0342521
0.0355869
0.0368713
0.0380936
0.0392549
0.0403648
0.0414365
0.0424815
0.0435056
0.0445055
0.0454704
0.0463723
0.0471694
0.0479325
0.04805
0.04805
0.04805
0.04805
0.04805
0.04805
0.04805
0.04805
0.04805
0.04805
0.04805
0.04805
0.04805
0.04805
0.04805
0.04805
0.04805
0.04805
0.04805
0.0450441
0.0349168
0.0187982
0.00547406
0.000661407
1.93462e-05
0.0207402
0.0213723
0.0224561
0.023806
0.0253014
0.0268862
0.028536
0.0302313
0.0319429
0.0336326
0.0352622
0.0368045
0.038248
0.0395956
0.0408591
0.0420529
0.0431878
0.0442668
0.0452856
0.0462234
0.0470482
0.047838
0.04805
0.04805
0.04805
0.04805
0.04805
0.04805
0.04805
0.04805
0.04805
0.04805
0.04805
0.04805
0.04805
0.04805
0.04805
0.04805
0.04805
0.04805
0.04805
0.04805
0.0450482
0.0349513
0.0188378
0.00549047
0.000663596
1.94103e-05
0.0164686
0.0173642
0.0188807
0.0207333
0.0227325
0.0247931
0.0268862
0.0289938
0.031086
0.0331205
0.0350548
0.0368597
0.038524
0.0400518
0.0414562
0.0427511
0.0439454
0.0450421
0.0460289
0.0468831
0.0476875
0.04805
0.04805
0.04805
0.04805
0.04805
0.04805
0.04805
0.04805
0.04805
0.04805
0.04805
0.04805
0.04805
0.04805
0.04805
0.04805
0.04805
0.04805
0.04805
0.04805
0.04805
0.045062
0.0349972
0.0188873
0.0055109
0.000666351
1.94912e-05
0.0122067
0.0133513
0.0152874
0.0176441
0.020166
0.0227325
0.0253015
0.0278499
0.0303435
0.032735
0.0349787
0.0370438
0.0389196
0.0406112
0.0421315
0.0434931
0.0447055
0.0457702
0.0466696
0.0474627
0.04805
0.04805
0.04805
0.04805
0.04805
0.04805
0.04805
0.04805
0.04805
0.04805
0.04805
0.04805
0.04805
0.04805
0.04805
0.04805
0.04805
0.04805
0.04805
0.04805
0.04805
0.04805
0.0450846
0.0350527
0.0189451
0.00553464
0.000669576
1.95859e-05
0.00816922
0.0095106
0.0117983
0.0146111
0.0176441
0.0207333
0.0238061
0.0268206
0.0297316
0.0324861
0.0350358
0.0373495
0.0394168
0.0412431
0.0428414
0.0442245
0.0454099
0.0463954
0.0471753
0.0479724
0.04805
0.04805
0.04805
0.04805
0.04805
0.04805
0.04805
0.04805
0.04805
0.04805
0.04805
0.04805
0.04805
0.04805
0.04805
0.04805
0.04805
0.04805
0.04805
0.04805
0.04805
0.04805
0.0451132
0.0351134
0.0190067
0.00555994
0.000673028
1.96874e-05
0.00463185
0.00609326
0.00862383
0.0117983
0.0152874
0.0188808
0.0224563
0.0259371
0.02926
0.0323655
0.035203
0.0377402
0.0399662
0.0418868
0.0435157
0.0448745
0.045983
0.0468448
0.0475878
0.04805
0.04805
0.04805
0.04805
0.04805
0.04805
0.04805
0.04805
0.04805
0.04805
0.04805
0.04805
0.04805
0.04805
0.04805
0.04805
0.04805
0.04805
0.04805
0.04805
0.04805
0.04805
0.04805
0.0451433
0.035172
0.0190655
0.00558402
0.000676323
1.97844e-05
0.00191987
0.0034304
0.00609328
0.00951064
0.0133513
0.0173643
0.0213725
0.0252574
0.0289354
0.03234
0.0354173
0.038132
0.0404714
0.0424425
0.0440642
0.0453727
0.0463938
0.0471419
0.0478695
0.04805
0.04805
0.04805
0.04805
0.04805
0.04805
0.04805
0.04805
0.04805
0.04805
0.04805
0.04805
0.04805
0.04805
0.04805
0.04805
0.04805
0.04805
0.04805
0.04805
0.04805
0.04805
0.04805
0.045169
0.0352197
0.0191128
0.0056034
0.000678978
1.98625e-05
0.000400951
0.00191987
0.00463188
0.00816926
0.0122067
0.0164687
0.0207403
0.0248735
0.0287694
0.0323561
0.0355766
0.0383925
0.0407898
0.0427781
0.044382
0.0456499
0.0466137
0.0472956
0.0480172
0.04805
0.04805
0.04805
0.04805
0.04805
0.04805
0.04805
0.04805
0.04805
0.04805
0.04805
0.04805
0.04805
0.04805
0.04805
0.04805
0.04805
0.04805
0.04805
0.04805
0.04805
0.04805
0.04805
0.0451844
0.035247
0.0191399
0.00561448
0.000680499
1.99073e-05
)
;

boundaryField
{
    inlet
    {
        type            cyclic;
    }
    outlet
    {
        type            cyclic;
    }
    walls
    {
        type            calculated;
        value           nonuniform List<scalar> 
96
(
4.11153e-08
1.7851e-07
4.33223e-07
8.0024e-07
1.28147e-06
1.8817e-06
2.60734e-06
3.46376e-06
4.44806e-06
5.54057e-06
6.70461e-06
7.89529e-06
9.06977e-06
1.01949e-05
1.12498e-05
1.22251e-05
1.31197e-05
1.39368e-05
1.46818e-05
1.53605e-05
1.59809e-05
1.65535e-05
1.70717e-05
1.75262e-05
1.79134e-05
1.82347e-05
1.84953e-05
1.87025e-05
1.88657e-05
1.8994e-05
1.9096e-05
1.91784e-05
1.92462e-05
1.93028e-05
1.93498e-05
1.93883e-05
1.942e-05
1.94482e-05
1.94777e-05
1.9514e-05
1.95624e-05
1.96268e-05
1.97081e-05
1.98034e-05
1.99055e-05
2.00031e-05
2.00818e-05
2.01269e-05
2.01269e-05
2.00818e-05
2.00031e-05
1.99054e-05
1.98033e-05
1.9708e-05
1.96268e-05
1.95625e-05
1.95141e-05
1.9478e-05
1.94487e-05
1.94205e-05
1.93888e-05
1.93503e-05
1.93033e-05
1.92466e-05
1.91786e-05
1.90959e-05
1.89937e-05
1.88652e-05
1.87018e-05
1.84943e-05
1.82337e-05
1.79123e-05
1.75252e-05
1.70707e-05
1.65527e-05
1.59802e-05
1.53599e-05
1.46814e-05
1.39365e-05
1.31194e-05
1.2225e-05
1.12497e-05
1.01948e-05
9.06975e-06
7.89528e-06
6.70462e-06
5.54057e-06
4.44807e-06
3.46377e-06
2.60735e-06
1.8817e-06
1.28148e-06
8.00241e-07
4.33223e-07
1.78511e-07
4.11153e-08
)
;
    }
    symPlanes
    {
        type            symmetry;
    }
}


// ************************************************************************* //
