/*--------------------------------*- C++ -*----------------------------------*\
| =========                 |                                                 |
| \\      /  F ield         | OpenFOAM: The Open Source CFD Toolbox           |
|  \\    /   O peration     | Version:  2412                                  |
|   \\  /    A nd           | Website:  www.openfoam.com                      |
|    \\/     M anipulation  |                                                 |
\*---------------------------------------------------------------------------*/
FoamFile
{
    version     2.0;
    format      ascii;
    arch        "LSB;label=32;scalar=64";
    class       volScalarField;
    location    "2130";
    object      I1_I2;
}
// * * * * * * * * * * * * * * * * * * * * * * * * * * * * * * * * * * * * * //

dimensions      [0 0 0 0 0 0 0];

internalField   nonuniform List<scalar> 
2304
(
-3.96302e-10
-3.94521e-10
-3.9142e-10
-3.87591e-10
-3.83603e-10
-3.79901e-10
-3.76757e-10
-3.74274e-10
-3.7241e-10
-3.71014e-10
-3.69881e-10
-3.68794e-10
-3.67571e-10
-3.6609e-10
-3.64289e-10
-3.62125e-10
-3.59541e-10
-3.56416e-10
-3.52575e-10
-3.47783e-10
-3.41742e-10
-3.34156e-10
-3.24751e-10
-3.13344e-10
-2.9988e-10
-2.84454e-10
-2.67368e-10
-2.49102e-10
-2.30041e-10
-2.10062e-10
-1.89181e-10
-1.67542e-10
-1.4537e-10
-1.22998e-10
-1.0091e-10
-7.97651e-11
-6.03414e-11
-4.34106e-11
-2.95464e-11
-1.89557e-11
-1.14252e-11
-6.42404e-12
-3.31278e-12
-1.51601e-12
-5.79996e-13
-1.65085e-13
-2.67707e-14
-1.41734e-15
-4.6308e-07
-4.61012e-07
-4.57412e-07
-4.52963e-07
-4.48327e-07
-4.44019e-07
-4.40356e-07
-4.37459e-07
-4.35279e-07
-4.33643e-07
-4.32312e-07
-4.31032e-07
-4.29593e-07
-4.27854e-07
-4.25738e-07
-4.232e-07
-4.20176e-07
-4.16525e-07
-4.11993e-07
-4.06356e-07
-3.99273e-07
-3.90404e-07
-3.79431e-07
-3.66145e-07
-3.50476e-07
-3.32526e-07
-3.12624e-07
-2.9132e-07
-2.69085e-07
-2.45765e-07
-2.21393e-07
-1.9615e-07
-1.70305e-07
-1.44239e-07
-1.18505e-07
-9.38468e-08
-7.11483e-08
-5.12961e-08
-3.49711e-08
-2.24286e-08
-1.35183e-08
-7.62643e-09
-3.97561e-09
-1.86696e-09
-7.54892e-10
-2.30626e-10
-2.3999e-11
-2.67706e-14
-3.15218e-05
-3.13974e-05
-3.11805e-05
-3.0912e-05
-3.06312e-05
-3.0369e-05
-3.01444e-05
-2.99646e-05
-2.98268e-05
-2.97203e-05
-2.96308e-05
-2.95429e-05
-2.94435e-05
-2.93238e-05
-2.91788e-05
-2.90049e-05
-2.87976e-05
-2.85482e-05
-2.82556e-05
-2.78934e-05
-2.74399e-05
-2.68736e-05
-2.61742e-05
-2.53276e-05
-2.43278e-05
-2.31783e-05
-2.18947e-05
-2.05075e-05
-1.90471e-05
-1.75016e-05
-1.58734e-05
-1.41741e-05
-1.242e-05
-1.06345e-05
-8.85212e-06
-7.12011e-06
-5.49694e-06
-4.04517e-06
-2.82002e-06
-1.85906e-06
-1.15266e-06
-6.70276e-07
-3.62336e-07
-1.76173e-07
-6.74048e-08
-1.16856e-08
-2.30626e-10
-1.65085e-13
-0.000366326
-0.00036529
-0.000363483
-0.000361244
-0.000358903
-0.000356718
-0.00035485
-0.000353363
-0.000352231
-0.000351363
-0.000350635
-0.000349912
-0.000349078
-0.000348049
-0.000346772
-0.000345207
-0.000343303
-0.000340983
-0.000338283
-0.000334916
-0.00033068
-0.000325376
-0.000318802
-0.000310804
-0.000301293
-0.00029024
-0.000277687
-0.00026379
-0.000248763
-0.000232464
-0.000214885
-0.000196088
-0.000176175
-0.000155324
-0.000133826
-0.000112123
-9.08073e-05
-7.06029e-05
-5.23098e-05
-3.67362e-05
-2.42281e-05
-1.48671e-05
-8.22155e-06
-3.64648e-06
-9.20298e-07
-6.74047e-08
-7.5489e-10
-5.79995e-13
-0.00124213
-0.0012402
-0.00123684
-0.00123272
-0.00122846
-0.00122457
-0.00122136
-0.00121896
-0.0012173
-0.0012162
-0.0012154
-0.00121462
-0.00121361
-0.00121217
-0.00121014
-0.0012074
-0.0012038
-0.00119916
-0.00119359
-0.0011864
-0.00117712
-0.00116532
-0.0011505
-0.00113228
-0.00111037
-0.00108457
-0.00105467
-0.00102039
-0.000981382
-0.00093766
-0.000889073
-0.000835501
-0.000776931
-0.000713549
-0.000645785
-0.00057429
-0.000499861
-0.000423401
-0.000346003
-0.000269255
-0.000194919
-0.000126491
-6.71092e-05
-2.33326e-05
-3.64648e-06
-1.76173e-07
-1.86696e-09
-1.516e-12
-0.00204162
-0.00204022
-0.0020379
-0.00203518
-0.0020326
-0.00203056
-0.00202933
-0.00202896
-0.00202939
-0.00203043
-0.00203184
-0.00203334
-0.00203468
-0.0020356
-0.00203587
-0.00203528
-0.00203356
-0.0020305
-0.00202626
-0.00202001
-0.00201127
-0.00199962
-0.0019846
-0.00196582
-0.00194305
-0.00191608
-0.00188451
-0.00184762
-0.00180445
-0.00175503
-0.0016993
-0.00163717
-0.0015689
-0.00149515
-0.00141678
-0.00133427
-0.00124686
-0.00115142
-0.00104116
-0.000903143
-0.000718573
-0.000484934
-0.000239067
-6.71091e-05
-8.22153e-06
-3.62335e-07
-3.9756e-09
-3.31278e-12
-0.00230865
-0.00230865
-0.00230865
-0.00230865
-0.00230865
-0.00230865
-0.00230865
-0.00230864
-0.00230864
-0.00230864
-0.00230863
-0.00230862
-0.00230862
-0.00230861
-0.00230859
-0.00230858
-0.00230856
-0.00230853
-0.0023085
-0.00230846
-0.00230842
-0.00230836
-0.0023083
-0.00230824
-0.00230816
-0.00230807
-0.00230796
-0.00230281
-0.00226435
-0.00222192
-0.00217646
-0.0021293
-0.00208253
-0.00203877
-0.00200041
-0.00196839
-0.00194009
-0.00190628
-0.00184695
-0.00172481
-0.00146663
-0.00101718
-0.000484932
-0.000126491
-1.4867e-05
-6.70274e-07
-7.6264e-09
-6.42402e-12
-0.00230869
-0.00230869
-0.00230869
-0.00230869
-0.00230869
-0.0023087
-0.0023087
-0.00230871
-0.00230871
-0.00230872
-0.00230874
-0.00230875
-0.00230876
-0.00230877
-0.00230879
-0.0023088
-0.00230881
-0.00230881
-0.00230882
-0.00230882
-0.00230881
-0.0023088
-0.00230877
-0.00230873
-0.00230868
-0.00230861
-0.00230853
-0.0023084
-0.00230828
-0.00230821
-0.00230814
-0.00230807
-0.00230801
-0.00230794
-0.00230782
-0.00230756
-0.00230708
-0.00230633
-0.00230528
-0.00230445
-0.00205168
-0.00146662
-0.00071857
-0.000194918
-2.4228e-05
-1.15266e-06
-1.35183e-08
-1.14251e-11
-0.00230854
-0.00230854
-0.00230854
-0.00230854
-0.00230854
-0.00230855
-0.00230856
-0.00230857
-0.00230859
-0.00230862
-0.00230865
-0.00230868
-0.00230871
-0.00230875
-0.00230878
-0.00230881
-0.00230884
-0.00230887
-0.0023089
-0.00230892
-0.00230893
-0.00230893
-0.00230892
-0.00230888
-0.00230883
-0.00230877
-0.00230871
-0.00230864
-0.00230854
-0.00230847
-0.00230842
-0.00230836
-0.00230829
-0.00230818
-0.00230798
-0.00230762
-0.00230705
-0.00230629
-0.00230542
-0.00230406
-0.00230445
-0.00172481
-0.000903138
-0.000269253
-3.67361e-05
-1.85905e-06
-2.24285e-08
-1.89556e-11
-0.0023086
-0.0023086
-0.0023086
-0.0023086
-0.00230861
-0.00230862
-0.00230863
-0.00230865
-0.00230868
-0.00230871
-0.00230875
-0.00230879
-0.00230882
-0.00230886
-0.0023089
-0.00230894
-0.00230898
-0.00230901
-0.00230905
-0.00230907
-0.00230908
-0.00230906
-0.00230899
-0.00230889
-0.00230876
-0.0023086
-0.00230843
-0.00230824
-0.00230806
-0.00230795
-0.00230788
-0.00230784
-0.00230779
-0.0023077
-0.00230754
-0.00230725
-0.00230684
-0.00230635
-0.00230586
-0.00230542
-0.00230529
-0.00184694
-0.00104115
-0.000346
-5.23095e-05
-2.82001e-06
-3.4971e-08
-2.95463e-11
-0.00230855
-0.00230855
-0.00230855
-0.00230856
-0.00230857
-0.00230858
-0.00230861
-0.00230864
-0.00230868
-0.00230874
-0.00230879
-0.00230885
-0.00230891
-0.00230897
-0.00230903
-0.0023091
-0.00230917
-0.00230923
-0.0023093
-0.00230936
-0.00230939
-0.00230937
-0.00230927
-0.0023091
-0.00230886
-0.00230859
-0.0023083
-0.00230799
-0.00230769
-0.00230747
-0.00230732
-0.00230721
-0.00230713
-0.00230705
-0.00230696
-0.00230681
-0.00230662
-0.00230643
-0.00230635
-0.00230629
-0.00230633
-0.00190627
-0.00115141
-0.000423399
-7.06026e-05
-4.04516e-06
-5.12961e-08
-4.34105e-11
-0.00230847
-0.00230847
-0.00230847
-0.00230848
-0.0023085
-0.00230853
-0.00230857
-0.00230862
-0.00230869
-0.00230877
-0.00230886
-0.00230895
-0.00230905
-0.00230915
-0.00230925
-0.00230936
-0.00230948
-0.0023096
-0.00230973
-0.00230985
-0.00230992
-0.00230992
-0.00230979
-0.00230953
-0.00230915
-0.0023087
-0.00230827
-0.00230786
-0.00230751
-0.00230724
-0.00230705
-0.00230693
-0.00230685
-0.0023068
-0.00230675
-0.00230668
-0.00230662
-0.00230662
-0.00230684
-0.00230705
-0.00230708
-0.00194008
-0.00124685
-0.000499859
-9.0807e-05
-5.49694e-06
-7.11483e-08
-6.03415e-11
-0.0023084
-0.0023084
-0.0023084
-0.00230842
-0.00230845
-0.00230849
-0.00230855
-0.00230863
-0.00230874
-0.00230886
-0.00230899
-0.00230913
-0.00230927
-0.00230942
-0.00230958
-0.00230976
-0.00230996
-0.00231016
-0.00231038
-0.00231057
-0.00231073
-0.00231077
-0.00231061
-0.00231024
-0.00230967
-0.00230897
-0.00230831
-0.00230779
-0.00230738
-0.00230709
-0.00230688
-0.00230676
-0.00230669
-0.00230665
-0.00230664
-0.00230664
-0.00230668
-0.00230681
-0.00230725
-0.00230762
-0.00230756
-0.00196839
-0.00133427
-0.000574289
-0.000112123
-7.12012e-06
-9.38471e-08
-7.97654e-11
-0.00230833
-0.00230833
-0.00230834
-0.00230837
-0.00230841
-0.00230847
-0.00230856
-0.00230868
-0.00230883
-0.00230901
-0.0023092
-0.0023094
-0.00230962
-0.00230984
-0.00231008
-0.00231035
-0.00231065
-0.00231095
-0.00231129
-0.0023116
-0.00231184
-0.00231191
-0.0023117
-0.00231121
-0.00231044
-0.00230949
-0.00230856
-0.00230782
-0.00230732
-0.00230699
-0.00230677
-0.00230664
-0.00230658
-0.00230657
-0.00230659
-0.00230664
-0.00230675
-0.00230696
-0.00230754
-0.00230798
-0.00230782
-0.00200041
-0.00141678
-0.000645786
-0.000133827
-8.85218e-06
-1.18506e-07
-1.00911e-10
-0.00230828
-0.00230828
-0.0023083
-0.00230833
-0.00230839
-0.00230848
-0.00230861
-0.00230878
-0.00230899
-0.00230924
-0.00230951
-0.00230981
-0.00231011
-0.00231043
-0.00231077
-0.00231117
-0.0023116
-0.00231202
-0.00231249
-0.00231285
-0.00231326
-0.0023135
-0.00231316
-0.00231242
-0.0023113
-0.00230995
-0.00230881
-0.00230799
-0.00230733
-0.00230693
-0.00230669
-0.00230657
-0.00230652
-0.00230652
-0.00230657
-0.00230665
-0.0023068
-0.00230705
-0.0023077
-0.00230818
-0.00230794
-0.00203877
-0.00149516
-0.000713553
-0.000155325
-1.06347e-05
-1.44241e-07
-1.22999e-10
-0.00230824
-0.00230825
-0.00230828
-0.00230832
-0.00230841
-0.00230853
-0.00230871
-0.00230895
-0.00230924
-0.00230958
-0.00230996
-0.00231037
-0.0023108
-0.00231124
-0.00231171
-0.00231225
-0.00231283
-0.00231331
-0.00231401
-0.00231463
-0.00231471
-0.00229911
-0.00228712
-0.00228203
-0.00228434
-0.00229506
-0.00230902
-0.00230796
-0.00230736
-0.0023069
-0.00230664
-0.00230653
-0.0023065
-0.00230652
-0.00230658
-0.00230669
-0.00230685
-0.00230713
-0.00230778
-0.00230829
-0.00230801
-0.00208254
-0.00156891
-0.000776939
-0.000176178
-1.24202e-05
-1.70309e-07
-1.45374e-10
-0.00230823
-0.00230825
-0.00230828
-0.00230834
-0.00230846
-0.00230863
-0.00230887
-0.00230919
-0.00230959
-0.00231005
-0.00231057
-0.00231113
-0.00231172
-0.00231231
-0.00231292
-0.0023136
-0.00231436
-0.00231511
-0.00231553
-0.00229323
-0.00227155
-0.00225707
-0.00225127
-0.00225253
-0.00225992
-0.00227217
-0.00228849
-0.00230794
-0.00230722
-0.00230687
-0.00230663
-0.00230653
-0.00230653
-0.00230657
-0.00230664
-0.00230676
-0.00230693
-0.00230721
-0.00230783
-0.00230836
-0.00230807
-0.00212931
-0.00163719
-0.000835514
-0.000196092
-1.41745e-05
-1.96157e-07
-1.67548e-10
-0.00230825
-0.00230827
-0.00230832
-0.0023084
-0.00230856
-0.00230879
-0.00230911
-0.00230954
-0.00231006
-0.00231068
-0.00231138
-0.00231213
-0.0023129
-0.00231366
-0.00231436
-0.00231535
-0.00231618
-0.00229941
-0.00226942
-0.00224585
-0.00223017
-0.00222048
-0.00221887
-0.0022246
-0.00223641
-0.00225274
-0.00227097
-0.00229007
-0.00230712
-0.00230681
-0.00230669
-0.00230663
-0.00230664
-0.00230669
-0.00230677
-0.00230688
-0.00230705
-0.00230732
-0.00230788
-0.00230842
-0.00230814
-0.00217647
-0.00169932
-0.000889091
-0.000214892
-1.58741e-05
-2.21403e-07
-1.8919e-10
-0.0023083
-0.00230833
-0.00230839
-0.00230851
-0.00230871
-0.00230901
-0.00230944
-0.00230999
-0.00231068
-0.0023115
-0.00231242
-0.00231339
-0.00231436
-0.00231532
-0.00231633
-0.00231594
-0.00227966
-0.00224727
-0.00222115
-0.00220025
-0.00218739
-0.00218251
-0.00218574
-0.00219591
-0.00221144
-0.0022306
-0.00225174
-0.00227204
-0.00229212
-0.00230682
-0.0023068
-0.00230687
-0.00230689
-0.00230693
-0.00230698
-0.00230708
-0.00230724
-0.00230747
-0.00230795
-0.00230847
-0.00230821
-0.00222193
-0.00175505
-0.000937684
-0.000232473
-1.75025e-05
-2.45779e-07
-2.10074e-10
-0.00230838
-0.00230842
-0.0023085
-0.00230865
-0.00230891
-0.00230931
-0.00230986
-0.00231058
-0.00231147
-0.00231253
-0.00231371
-0.00231491
-0.00231616
-0.00231728
-0.00230276
-0.00226132
-0.0022252
-0.00219452
-0.00216952
-0.0021524
-0.00214414
-0.00214437
-0.00215222
-0.00216625
-0.00218483
-0.00220637
-0.0022293
-0.0022522
-0.00227259
-0.0022921
-0.00230711
-0.00230721
-0.00230735
-0.00230733
-0.00230732
-0.00230738
-0.0023075
-0.00230769
-0.00230806
-0.00230854
-0.00230828
-0.00226437
-0.00180448
-0.000981414
-0.000248775
-1.90484e-05
-2.69105e-07
-2.30058e-10
-0.00230849
-0.00230853
-0.00230864
-0.00230883
-0.00230917
-0.00230968
-0.00231038
-0.0023113
-0.00231244
-0.00231378
-0.00231523
-0.00231681
-0.00231807
-0.00229019
-0.00224526
-0.00220492
-0.00216765
-0.00213798
-0.00211661
-0.00210448
-0.00210141
-0.00210645
-0.00211826
-0.00213537
-0.00215634
-0.00217985
-0.00220457
-0.00222913
-0.00225218
-0.00227201
-0.00229002
-0.00230793
-0.00230795
-0.00230798
-0.00230782
-0.00230779
-0.00230786
-0.00230799
-0.00230824
-0.00230864
-0.00230839
-0.00230284
-0.00184765
-0.00102043
-0.000263806
-2.05091e-05
-2.91345e-07
-2.49124e-10
-0.00230861
-0.00230866
-0.0023088
-0.00230905
-0.00230948
-0.00231011
-0.002311
-0.00231216
-0.00231359
-0.00231523
-0.00231713
-0.00231858
-0.0022787
-0.00222965
-0.00218388
-0.00214173
-0.00210657
-0.0020807
-0.00206447
-0.00205772
-0.00205962
-0.00206889
-0.00208405
-0.00210373
-0.00212671
-0.00215193
-0.00217832
-0.00220455
-0.00222926
-0.00225168
-0.00227091
-0.0022884
-0.00230901
-0.00230881
-0.00230856
-0.00230831
-0.00230826
-0.0023083
-0.00230843
-0.00230871
-0.00230853
-0.00230796
-0.00188456
-0.00105472
-0.000277707
-2.18967e-05
-3.12656e-07
-2.67395e-10
-0.00230872
-0.00230879
-0.00230896
-0.00230928
-0.00230981
-0.00231061
-0.00231172
-0.00231316
-0.00231488
-0.00231702
-0.00231869
-0.0022683
-0.00221512
-0.0021638
-0.00211642
-0.00207624
-0.00204547
-0.00202488
-0.00201425
-0.00201281
-0.0020193
-0.00203228
-0.00205031
-0.00207222
-0.00209705
-0.00212393
-0.00215191
-0.00217981
-0.0022063
-0.00223052
-0.00225265
-0.00227208
-0.00229491
-0.00230994
-0.00230948
-0.00230897
-0.0023087
-0.00230858
-0.0023086
-0.00230877
-0.00230861
-0.00230807
-0.00191612
-0.00108462
-0.000290262
-2.31807e-05
-3.32564e-07
-2.84486e-10
-0.0023088
-0.00230889
-0.00230909
-0.00230949
-0.00231015
-0.00231113
-0.00231249
-0.00231424
-0.00231645
-0.00231769
-0.00225879
-0.00220187
-0.00214522
-0.00209254
-0.00204731
-0.00201169
-0.00198652
-0.00197182
-0.00196686
-0.00197041
-0.00198102
-0.00199723
-0.00201781
-0.0020418
-0.00206845
-0.00209703
-0.00212667
-0.00215628
-0.00218475
-0.00221134
-0.00223629
-0.0022598
-0.00228419
-0.0023113
-0.00231044
-0.00230966
-0.00230915
-0.00230886
-0.00230875
-0.00230883
-0.00230868
-0.00230816
-0.0019431
-0.00111042
-0.000301317
-2.43304e-05
-3.50517e-07
-2.99916e-10
-0.00230879
-0.0023089
-0.00230914
-0.00230962
-0.00231044
-0.00231163
-0.00231326
-0.00231543
-0.00231201
-0.00224999
-0.00218987
-0.00212834
-0.00207055
-0.0020203
-0.00197976
-0.00194997
-0.00193108
-0.00192244
-0.00192289
-0.00193098
-0.00194521
-0.0019643
-0.00198723
-0.00201325
-0.00204178
-0.00207219
-0.00210367
-0.00213529
-0.00216614
-0.00219579
-0.00222446
-0.0022524
-0.00228186
-0.00231242
-0.00231121
-0.00231024
-0.00230953
-0.0023091
-0.00230889
-0.00230888
-0.00230873
-0.00230824
-0.00196587
-0.00113233
-0.000310829
-2.53303e-05
-3.66188e-07
-3.13382e-10
-0.00230861
-0.00230874
-0.00230903
-0.00230961
-0.00231059
-0.00231201
-0.00231397
-0.00230443
-0.00224116
-0.00217888
-0.00211309
-0.00205063
-0.00199553
-0.00195014
-0.0019157
-0.0018925
-0.00188004
-0.00187722
-0.00188263
-0.00189475
-0.00191221
-0.00193392
-0.00195911
-0.00198721
-0.00201778
-0.00205026
-0.00208398
-0.00211816
-0.0021521
-0.00218561
-0.00221872
-0.00225113
-0.00228695
-0.00231317
-0.0023117
-0.00231061
-0.00230979
-0.00230927
-0.00230899
-0.00230892
-0.00230877
-0.0023083
-0.00198464
-0.00115055
-0.000318826
-2.61769e-05
-3.79474e-07
-3.24788e-10
-0.00230812
-0.00230828
-0.00230862
-0.00230929
-0.00231043
-0.00231209
-0.00229331
-0.00223055
-0.00216717
-0.00209891
-0.00203253
-0.00197303
-0.001923
-0.00188396
-0.00185641
-0.00184
-0.00183376
-0.00183632
-0.00184617
-0.00186187
-0.00188224
-0.00190644
-0.00193391
-0.00196428
-0.00199719
-0.00203222
-0.0020688
-0.00210633
-0.00214424
-0.00218236
-0.00222032
-0.0022569
-0.00229893
-0.00231351
-0.00231191
-0.00231077
-0.00230992
-0.00230937
-0.00230906
-0.00230893
-0.0023088
-0.00230836
-0.00199966
-0.00116536
-0.000325398
-2.68761e-05
-3.90444e-07
-3.3419e-10
-0.00230712
-0.00230726
-0.00230756
-0.00230838
-0.00230964
-0.00227639
-0.00221683
-0.00215402
-0.00208459
-0.00201561
-0.00195243
-0.00189819
-0.00185477
-0.00182292
-0.00180249
-0.00179269
-0.00179225
-0.00179967
-0.00181348
-0.00183241
-0.00185552
-0.00188224
-0.0019122
-0.00194518
-0.00198097
-0.00201923
-0.00205952
-0.00210129
-0.002144
-0.00218724
-0.00223003
-0.00227137
-0.00231471
-0.00231326
-0.00231185
-0.00231073
-0.00230992
-0.00230939
-0.00230908
-0.00230893
-0.00230881
-0.00230842
-0.0020113
-0.00117716
-0.000330698
-2.74419e-05
-3.99306e-07
-3.41771e-10
-0.00230486
-0.00230512
-0.00230556
-0.00229898
-0.00225196
-0.0021986
-0.00213799
-0.00206893
-0.00199865
-0.00193286
-0.00187512
-0.00182775
-0.00179182
-0.00176745
-0.00175404
-0.00175048
-0.00175535
-0.00176715
-0.00178455
-0.00180652
-0.0018324
-0.00186186
-0.00189473
-0.00193094
-0.00197036
-0.00201274
-0.00205763
-0.00210436
-0.00215226
-0.0022001
-0.00224571
-0.00229308
-0.00231463
-0.00231285
-0.0023116
-0.00231058
-0.00230985
-0.00230936
-0.00230907
-0.00230892
-0.00230882
-0.00230846
-0.00202004
-0.00118643
-0.000334929
-2.78949e-05
-4.0638e-07
-3.47804e-10
-0.00229787
-0.00228441
-0.00225876
-0.00222117
-0.00217545
-0.00211746
-0.00205021
-0.00198005
-0.00191288
-0.00185265
-0.00180205
-0.00176251
-0.00173445
-0.00171754
-0.00171086
-0.00171313
-0.00172286
-0.00173868
-0.00175949
-0.00178454
-0.00181347
-0.00184615
-0.00188261
-0.00192285
-0.0019668
-0.00201417
-0.00206437
-0.00211649
-0.0021694
-0.00222104
-0.00226929
-0.00231553
-0.00231402
-0.00231249
-0.00231129
-0.00231038
-0.00230973
-0.0023093
-0.00230905
-0.0023089
-0.00230882
-0.0023085
-0.00202628
-0.00119361
-0.00033829
-2.82565e-05
-4.12007e-07
-3.52586e-10
-0.00222547
-0.00221196
-0.00218588
-0.00214627
-0.00209071
-0.00202617
-0.0019576
-0.00189046
-0.00182897
-0.00177617
-0.00173378
-0.00170257
-0.0016825
-0.0016729
-0.00167266
-0.00168039
-0.00169469
-0.00171439
-0.00173868
-0.00176715
-0.00179966
-0.0018363
-0.0018772
-0.0019224
-0.00197176
-0.00202481
-0.00208061
-0.00213788
-0.00219442
-0.00224717
-0.00229931
-0.00231512
-0.00231331
-0.00231202
-0.00231095
-0.00231016
-0.0023096
-0.00230923
-0.00230901
-0.00230887
-0.00230881
-0.00230853
-0.00203051
-0.00119916
-0.000340985
-2.85484e-05
-4.16528e-07
-3.56418e-10
-0.00215743
-0.00213862
-0.00210349
-0.00205439
-0.00199386
-0.00192829
-0.00186271
-0.00180146
-0.00174777
-0.00170367
-0.0016702
-0.00164764
-0.0016356
-0.0016332
-0.00163917
-0.00165216
-0.00167096
-0.00169469
-0.00172286
-0.00175535
-0.00179224
-0.00183374
-0.00188002
-0.00193104
-0.00198647
-0.00204541
-0.00210649
-0.00216757
-0.00222512
-0.00227958
-0.00231618
-0.00231436
-0.00231283
-0.0023116
-0.00231065
-0.00230996
-0.00230948
-0.00230917
-0.00230898
-0.00230884
-0.00230881
-0.00230856
-0.00203356
-0.0012038
-0.0003433
-2.87972e-05
-4.20168e-07
-3.59534e-10
-0.00206507
-0.00204259
-0.00200207
-0.00194875
-0.00188803
-0.00182571
-0.00176639
-0.00171348
-0.00166918
-0.00163477
-0.00161081
-0.00159722
-0.00159335
-0.00159813
-0.00161029
-0.00162862
-0.00165216
-0.00168039
-0.00171313
-0.00175048
-0.00179269
-0.00183999
-0.00189248
-0.00194994
-0.00201165
-0.00207619
-0.00214167
-0.00220487
-0.00226127
-0.0023159
-0.00231535
-0.00231361
-0.00231225
-0.00231117
-0.00231035
-0.00230976
-0.00230936
-0.0023091
-0.00230894
-0.00230881
-0.0023088
-0.00230858
-0.00203527
-0.00120739
-0.0003452
-2.9004e-05
-4.23184e-07
-3.62111e-10
-0.00195025
-0.00192598
-0.00188376
-0.00183098
-0.00177419
-0.00171884
-0.00166866
-0.00162606
-0.0015925
-0.00156874
-0.00155498
-0.00155082
-0.00155543
-0.00156763
-0.00158625
-0.0016103
-0.00163918
-0.00167267
-0.00171087
-0.00175404
-0.00180249
-0.00185641
-0.00191569
-0.00197974
-0.00204729
-0.00211638
-0.00218384
-0.00224523
-0.00230273
-0.00231633
-0.00231436
-0.00231292
-0.00231171
-0.00231077
-0.00231008
-0.00230958
-0.00230925
-0.00230903
-0.0023089
-0.00230878
-0.00230879
-0.00230859
-0.00203586
-0.00121012
-0.000346761
-2.91775e-05
-4.25716e-07
-3.6427e-10
-0.00181243
-0.00178872
-0.00174879
-0.00170114
-0.00165246
-0.00160737
-0.00156872
-0.00153821
-0.00151678
-0.0015048
-0.00150214
-0.00150814
-0.0015218
-0.00154197
-0.00156764
-0.00159814
-0.00163321
-0.00167291
-0.00171754
-0.00176746
-0.00182292
-0.00188397
-0.00195014
-0.00202029
-0.00209253
-0.00216379
-0.00222964
-0.00229019
-0.00231728
-0.00231532
-0.00231366
-0.00231231
-0.00231124
-0.00231043
-0.00230984
-0.00230942
-0.00230915
-0.00230897
-0.00230886
-0.00230875
-0.00230877
-0.00230861
-0.00203558
-0.00121214
-0.000348036
-2.93223e-05
-4.27828e-07
-3.66069e-10
-0.00165081
-0.00163057
-0.00159744
-0.0015594
-0.00152246
-0.00149043
-0.0014655
-0.00144891
-0.00144119
-0.00144237
-0.001452
-0.00146918
-0.0014928
-0.0015218
-0.00155543
-0.00159336
-0.00163561
-0.00168251
-0.00173446
-0.00179183
-0.00185478
-0.00192301
-0.00199553
-0.00207056
-0.00214523
-0.00221513
-0.00227871
-0.00231807
-0.00231616
-0.00231436
-0.0023129
-0.00231172
-0.0023108
-0.00231011
-0.00230962
-0.00230927
-0.00230905
-0.00230891
-0.00230882
-0.00230871
-0.00230876
-0.00230862
-0.00203465
-0.00121359
-0.000349065
-2.9442e-05
-4.29568e-07
-3.67549e-10
-0.00146677
-0.00145276
-0.00143042
-0.00140585
-0.00138379
-0.00136735
-0.00135831
-0.00135758
-0.00136537
-0.00138136
-0.00140476
-0.00143442
-0.00146919
-0.00150814
-0.00155083
-0.00159723
-0.00164765
-0.00170258
-0.00176252
-0.00182776
-0.0018982
-0.00197304
-0.00205064
-0.00212836
-0.00220189
-0.00226831
-0.00231858
-0.00231681
-0.00231491
-0.00231339
-0.00231213
-0.00231113
-0.00231037
-0.00230981
-0.0023094
-0.00230913
-0.00230895
-0.00230885
-0.00230879
-0.00230868
-0.00230875
-0.00230862
-0.00203332
-0.0012146
-0.0003499
-2.95415e-05
-4.31009e-07
-3.68774e-10
-0.00126354
-0.00125794
-0.00124955
-0.00124151
-0.00123699
-0.00123845
-0.0012474
-0.00126452
-0.00128974
-0.00132234
-0.00136114
-0.00140476
-0.00145201
-0.00150214
-0.00155499
-0.00161083
-0.00167022
-0.0017338
-0.00180206
-0.00187513
-0.00195244
-0.00203255
-0.00211311
-0.00218988
-0.0022588
-0.00231869
-0.00231713
-0.00231523
-0.0023137
-0.00231242
-0.00231138
-0.00231057
-0.00230996
-0.00230951
-0.0023092
-0.00230899
-0.00230886
-0.00230879
-0.00230875
-0.00230865
-0.00230874
-0.00230863
-0.00203182
-0.00121538
-0.000350625
-2.96297e-05
-4.32292e-07
-3.69865e-10
-0.00104741
-0.00105145
-0.00105886
-0.0010694
-0.00108441
-0.00110565
-0.00113442
-0.00117119
-0.00121561
-0.00126653
-0.00132234
-0.00138137
-0.00144238
-0.00150481
-0.00156876
-0.00163479
-0.00170368
-0.00177618
-0.00185266
-0.00193287
-0.00201562
-0.00209892
-0.00217889
-0.00225
-0.00231769
-0.00231701
-0.00231523
-0.00231378
-0.00231253
-0.0023115
-0.00231068
-0.00231005
-0.00230958
-0.00230924
-0.00230901
-0.00230886
-0.00230877
-0.00230873
-0.00230871
-0.00230862
-0.00230872
-0.00230864
-0.00203042
-0.00121619
-0.000351356
-2.97195e-05
-4.3363e-07
-3.71003e-10
-0.000827958
-0.000841677
-0.000865149
-0.00089495
-0.000930439
-0.000972546
-0.00102229
-0.00108
-0.00114498
-0.00121562
-0.00128975
-0.00136538
-0.0014412
-0.00151679
-0.00159251
-0.00166919
-0.00174778
-0.00182898
-0.00191289
-0.00199866
-0.0020846
-0.00216717
-0.00224116
-0.00231201
-0.00231645
-0.00231488
-0.00231359
-0.00231244
-0.00231147
-0.00231068
-0.00231006
-0.00230958
-0.00230924
-0.00230899
-0.00230883
-0.00230874
-0.00230869
-0.00230868
-0.00230868
-0.00230859
-0.00230871
-0.00230864
-0.00202938
-0.00121729
-0.000352227
-2.98263e-05
-4.35272e-07
-3.72403e-10
-0.000617059
-0.000639268
-0.000677342
-0.000725367
-0.000780806
-0.000843641
-0.000914567
-0.00099371
-0.00108001
-0.0011712
-0.00126453
-0.00135759
-0.00144892
-0.00153822
-0.00162607
-0.00171349
-0.00180146
-0.00189046
-0.00198006
-0.00206893
-0.00215401
-0.00223054
-0.00230443
-0.00231543
-0.00231423
-0.00231316
-0.00231216
-0.0023113
-0.00231058
-0.00230999
-0.00230954
-0.00230919
-0.00230895
-0.00230878
-0.00230868
-0.00230863
-0.00230862
-0.00230864
-0.00230865
-0.00230857
-0.00230871
-0.00230864
-0.00202896
-0.00121896
-0.000353362
-2.99645e-05
-4.37458e-07
-3.74272e-10
-0.000426866
-0.000455187
-0.000504566
-0.000567817
-0.000640944
-0.000722993
-0.000814259
-0.000914571
-0.0010223
-0.00113443
-0.00124741
-0.00135832
-0.00146551
-0.00156872
-0.00166867
-0.0017664
-0.00186271
-0.0019576
-0.0020502
-0.00213798
-0.00221682
-0.00229329
-0.00231396
-0.00231326
-0.00231249
-0.00231172
-0.002311
-0.00231038
-0.00230986
-0.00230944
-0.00230911
-0.00230887
-0.00230871
-0.00230861
-0.00230856
-0.00230855
-0.00230857
-0.00230861
-0.00230863
-0.00230856
-0.0023087
-0.00230865
-0.00202933
-0.00122136
-0.000354851
-3.01445e-05
-4.40358e-07
-3.76758e-10
-0.000267787
-0.000298682
-0.000354206
-0.000427674
-0.000514526
-0.000613044
-0.000722996
-0.000843647
-0.000972555
-0.00110566
-0.00123846
-0.00136735
-0.00149043
-0.00160737
-0.00171884
-0.00182571
-0.00192828
-0.00202617
-0.00211745
-0.00219859
-0.00227636
-0.00231209
-0.00231201
-0.00231163
-0.00231113
-0.00231061
-0.00231011
-0.00230968
-0.00230931
-0.00230901
-0.00230879
-0.00230863
-0.00230853
-0.00230848
-0.00230847
-0.00230849
-0.00230853
-0.00230858
-0.00230862
-0.00230855
-0.0023087
-0.00230865
-0.00203057
-0.00122457
-0.00035672
-3.03692e-05
-4.44023e-07
-3.79904e-10
-0.000146746
-0.000175904
-0.000230999
-0.000308021
-0.000403226
-0.000514528
-0.000640949
-0.000780814
-0.00093045
-0.00108442
-0.001237
-0.0013838
-0.00152247
-0.00165247
-0.00177419
-0.00188803
-0.00199385
-0.0020907
-0.00217544
-0.00225194
-0.00230964
-0.00231043
-0.00231059
-0.00231044
-0.00231015
-0.00230981
-0.00230948
-0.00230917
-0.00230891
-0.00230871
-0.00230856
-0.00230846
-0.00230841
-0.00230839
-0.00230841
-0.00230845
-0.0023085
-0.00230857
-0.00230861
-0.00230854
-0.00230869
-0.00230865
-0.0020326
-0.00122846
-0.000358905
-3.06314e-05
-4.48331e-07
-3.83607e-10
-6.5811e-05
-8.9238e-05
-0.000137322
-0.000210662
-0.000308022
-0.000427678
-0.000567823
-0.000725376
-0.000894961
-0.00106941
-0.00124153
-0.00140586
-0.00155941
-0.00170114
-0.00183098
-0.00194874
-0.00205438
-0.00214626
-0.00222116
-0.00229895
-0.00230838
-0.00230929
-0.00230961
-0.00230962
-0.00230949
-0.00230928
-0.00230905
-0.00230883
-0.00230865
-0.00230851
-0.0023084
-0.00230834
-0.00230832
-0.00230833
-0.00230837
-0.00230842
-0.00230848
-0.00230856
-0.0023086
-0.00230854
-0.00230869
-0.00230865
-0.00203519
-0.00123272
-0.000361246
-3.09121e-05
-4.52965e-07
-3.87593e-10
-2.12525e-05
-3.67391e-05
-7.34483e-05
-0.000137323
-0.000231001
-0.00035421
-0.000504572
-0.000677351
-0.000865159
-0.00105887
-0.00124956
-0.00143043
-0.00159744
-0.0017488
-0.00188376
-0.00200207
-0.00210349
-0.00218588
-0.00225875
-0.00230556
-0.00230756
-0.00230862
-0.00230903
-0.00230914
-0.00230909
-0.00230896
-0.0023088
-0.00230864
-0.0023085
-0.00230839
-0.00230832
-0.00230828
-0.00230828
-0.0023083
-0.00230834
-0.0023084
-0.00230847
-0.00230855
-0.0023086
-0.00230854
-0.00230869
-0.00230865
-0.0020379
-0.00123684
-0.000363483
-3.11805e-05
-4.57412e-07
-3.9142e-10
-3.67065e-06
-1.16899e-05
-3.67393e-05
-8.92387e-05
-0.000175906
-0.000298686
-0.000455193
-0.000639277
-0.000841687
-0.00105146
-0.00125795
-0.00145276
-0.00163057
-0.00178872
-0.00192598
-0.00204259
-0.00213862
-0.00221196
-0.0022844
-0.00230512
-0.00230726
-0.00230828
-0.00230874
-0.0023089
-0.00230889
-0.0023088
-0.00230866
-0.00230853
-0.00230842
-0.00230833
-0.00230827
-0.00230825
-0.00230825
-0.00230828
-0.00230833
-0.0023084
-0.00230847
-0.00230855
-0.0023086
-0.00230854
-0.00230869
-0.00230865
-0.00204022
-0.0012402
-0.000365289
-3.13972e-05
-4.6101e-07
-3.94519e-10
-1.60613e-07
-3.67066e-06
-2.12526e-05
-6.58115e-05
-0.000146747
-0.00026779
-0.000426872
-0.000617068
-0.000827969
-0.00104742
-0.00126355
-0.00146678
-0.00165081
-0.00181243
-0.00195025
-0.00206507
-0.00215743
-0.00222547
-0.00229786
-0.00230486
-0.00230712
-0.00230812
-0.00230861
-0.00230879
-0.0023088
-0.00230872
-0.00230861
-0.00230849
-0.00230838
-0.0023083
-0.00230825
-0.00230823
-0.00230824
-0.00230828
-0.00230833
-0.0023084
-0.00230847
-0.00230855
-0.0023086
-0.00230854
-0.00230869
-0.00230865
-0.00204162
-0.00124213
-0.000366324
-3.15216e-05
-4.63077e-07
-3.963e-10
)
;

boundaryField
{
    inlet
    {
        type            cyclic;
    }
    outlet
    {
        type            cyclic;
    }
    walls
    {
        type            calculated;
        value           nonuniform List<scalar> 
96
(
-1.69047e-15
-3.1866e-14
-1.87682e-13
-6.40384e-13
-1.64217e-12
-3.54079e-12
-6.7982e-12
-1.19976e-11
-1.97851e-11
-3.06977e-11
-4.49517e-11
-6.23354e-11
-8.22606e-11
-1.03935e-10
-1.26557e-10
-1.49453e-10
-1.72125e-10
-1.94234e-10
-2.15554e-10
-2.35943e-10
-2.55389e-10
-2.74018e-10
-2.91441e-10
-3.07168e-10
-3.20889e-10
-3.32505e-10
-3.42074e-10
-3.49784e-10
-3.55914e-10
-3.60769e-10
-3.64654e-10
-3.6781e-10
-3.70416e-10
-3.72597e-10
-3.74412e-10
-3.75903e-10
-3.77136e-10
-3.78233e-10
-3.79379e-10
-3.80793e-10
-3.82687e-10
-3.85209e-10
-3.88406e-10
-3.92171e-10
-3.96227e-10
-4.00121e-10
-4.03275e-10
-4.05089e-10
-4.0509e-10
-4.03278e-10
-4.00121e-10
-3.96225e-10
-3.92168e-10
-3.88403e-10
-3.85208e-10
-3.82688e-10
-3.808e-10
-3.7939e-10
-3.7825e-10
-3.77156e-10
-3.75925e-10
-3.74434e-10
-3.72616e-10
-3.7043e-10
-3.67816e-10
-3.64652e-10
-3.60758e-10
-3.55893e-10
-3.49755e-10
-3.4204e-10
-3.32467e-10
-3.2085e-10
-3.07131e-10
-2.91408e-10
-2.7399e-10
-2.55367e-10
-2.35926e-10