/*--------------------------------*- C++ -*----------------------------------*\
| =========                 |                                                 |
| \\      /  F ield         | OpenFOAM: The Open Source CFD Toolbox           |
|  \\    /   O peration     | Version:  2412                                  |
|   \\  /    A nd           | Website:  www.openfoam.com                      |
|    \\/     M anipulation  |                                                 |
\*---------------------------------------------------------------------------*/
FoamFile
{
    version     2.0;
    format      ascii;
    arch        "LSB;label=32;scalar=64";
    class       volScalarField;
    location    "2130";
    object      I2;
}
// * * * * * * * * * * * * * * * * * * * * * * * * * * * * * * * * * * * * * //

dimensions      [0 0 0 0 0 0 0];

internalField   nonuniform List<scalar> 
2304
(
-1.99073e-05
-1.98625e-05
-1.97843e-05
-1.96873e-05
-1.95858e-05
-1.9491e-05
-1.94102e-05
-1.93461e-05
-1.92979e-05
-1.92617e-05
-1.92323e-05
-1.9204e-05
-1.91721e-05
-1.91335e-05
-1.90863e-05
-1.90295e-05
-1.89615e-05
-1.8879e-05
-1.8777e-05
-1.86489e-05
-1.84862e-05
-1.82799e-05
-1.80208e-05
-1.77015e-05
-1.7317e-05
-1.68657e-05
-1.63514e-05
-1.5783e-05
-1.51671e-05
-1.44935e-05
-1.37543e-05
-1.29438e-05
-1.20569e-05
-1.10904e-05
-1.00454e-05
-8.93112e-06
-7.76796e-06
-6.58866e-06
-5.43565e-06
-4.35379e-06
-3.3801e-06
-2.53455e-06
-1.8201e-06
-1.23126e-06
-7.61574e-07
-4.06307e-07
-1.63617e-07
-3.76475e-08
-0.000680499
-0.000678978
-0.000676321
-0.000673024
-0.000669571
-0.000666347
-0.000663593
-0.000661406
-0.000659756
-0.000658515
-0.000657503
-0.000656529
-0.000655433
-0.000654104
-0.000652485
-0.000650537
-0.000648208
-0.000645386
-0.000641865
-0.000637459
-0.000631878
-0.000624821
-0.000615977
-0.000605096
-0.000592007
-0.000576649
-0.000559126
-0.000539738
-0.000518731
-0.000495743
-0.00047052
-0.000442884
-0.000412674
-0.000379782
-0.000344241
-0.00030634
-0.000266734
-0.000226485
-0.000187004
-0.00014976
-0.000116265
-8.73268e-05
-6.3051e-05
-4.32079e-05
-2.74752e-05
-1.51864e-05
-4.89888e-06
-1.63617e-07
-0.00561435
-0.00560326
-0.00558387
-0.00555978
-0.00553447
-0.00551073
-0.00549032
-0.00547393
-0.00546132
-0.00545156
-0.00544335
-0.00543526
-0.00542611
-0.00541507
-0.00540166
-0.00538554
-0.00536625
-0.00534296
-0.0053155
-0.00528132
-0.00523819
-0.00518386
-0.00511595
-0.00503252
-0.00493219
-0.00481426
-0.00467905
-0.00452838
-0.00436415
-0.00418333
-0.00398397
-0.00376467
-0.00352401
-0.00326087
-0.00297508
-0.00266821
-0.00234446
-0.00201122
-0.00167929
-0.00136347
-0.00107359
-0.000818659
-0.000601913
-0.000419717
-0.000259621
-0.000108099
-1.51863e-05
-4.06306e-07
-0.0191393
-0.0191123
-0.0190649
-0.0190061
-0.0189445
-0.0188867
-0.0188372
-0.0187977
-0.0187675
-0.0187444
-0.018725
-0.0187057
-0.0186834
-0.0186559
-0.0186216
-0.0185796
-0.0185283
-0.0184656
-0.0183923
-0.0183006
-0.0181845
-0.0180381
-0.0178549
-0.0176295
-0.0173577
-0.0170363
-0.0166638
-0.0162414
-0.0157719
-0.0152464
-0.0146585
-0.0140025
-0.0132724
-0.0124621
-0.0115675
-0.0105881
-0.00952889
-0.00840255
-0.00723288
-0.0060614
-0.00492227
-0.00385557
-0.0028671
-0.00190947
-0.000959292
-0.000259621
-2.74752e-05
-7.61574e-07
-0.0352407
-0.0352133
-0.0351655
-0.0351068
-0.0350461
-0.0349905
-0.0349447
-0.0349104
-0.0348867
-0.034871
-0.0348596
-0.0348486
-0.0348342
-0.0348135
-0.0347845
-0.0347453
-0.0346935
-0.0346266
-0.0345463
-0.0344422
-0.0343074
-0.034135
-0.0339173
-0.0336477
-0.0333207
-0.0329314
-0.0324744
-0.0319422
-0.0313257
-0.03062
-0.0298161
-0.0289038
-0.0278721
-0.026711
-0.0254112
-0.0239639
-0.0223583
-0.020579
-0.0186049
-0.0164127
-0.0139632
-0.0112466
-0.00819127
-0.00482995
-0.00190946
-0.000419717
-4.32078e-05
-1.23126e-06
-0.0451841
-0.0451686
-0.0451429
-0.0451128
-0.0450842
-0.0450616
-0.0450479
-0.0450438
-0.0450485
-0.0450601
-0.0450757
-0.0450923
-0.0451071
-0.0451173
-0.0451203
-0.0451137
-0.0450946
-0.0450606
-0.0450134
-0.0449438
-0.0448463
-0.0447162
-0.0445478
-0.0443366
-0.044079
-0.0437719
-0.0434098
-0.0429825
-0.0424773
-0.0418914
-0.0412209
-0.0404602
-0.0396074
-0.0386652
-0.0376384
-0.0365265
-0.0353111
-0.0339349
-0.032272
-0.0300591
-0.0268105
-0.0220212
-0.0154606
-0.00819126
-0.0028671
-0.000601913
-6.3051e-05
-1.8201e-06
-0.0480468
-0.0480467
-0.0480468
-0.0480468
-0.0480468
-0.0480468
-0.0480467
-0.0480467
-0.0480466
-0.0480465
-0.0480464
-0.0480463
-0.0480461
-0.0480459
-0.0480456
-0.0480453
-0.0480449
-0.0480443
-0.0480437
-0.0480429
-0.048042
-0.0480409
-0.0480396
-0.0480383
-0.0480367
-0.0480348
-0.0480325
-0.0479779
-0.0475764
-0.0471296
-0.0466458
-0.0461386
-0.0456297
-0.0451481
-0.0447213
-0.0443611
-0.0440393
-0.0436517
-0.0429658
-0.0415235
-0.0382955
-0.031893
-0.0220212
-0.0112466
-0.00385556
-0.000818658
-8.73267e-05
-2.53455e-06
-0.0480477
-0.0480477
-0.0480477
-0.0480477
-0.0480477
-0.0480478
-0.0480478
-0.048048
-0.0480481
-0.0480484
-0.0480486
-0.0480489
-0.0480491
-0.0480494
-0.0480497
-0.0480499
-0.0480501
-0.0480502
-0.0480503
-0.0480503
-0.0480502
-0.0480499
-0.0480493
-0.0480485
-0.0480474
-0.0480461
-0.0480442
-0.0480415
-0.0480392
-0.0480377
-0.0480362
-0.0480348
-0.0480335
-0.0480321
-0.0480295
-0.0480241
-0.0480141
-0.0479985
-0.0479768
-0.0479594
-0.0452728
-0.0382954
-0.0268104
-0.0139631
-0.00492226
-0.00107358
-0.000116265
-3.38009e-06
-0.0480445
-0.0480445
-0.0480445
-0.0480445
-0.0480445
-0.0480447
-0.0480449
-0.0480452
-0.0480457
-0.0480462
-0.0480468
-0.0480475
-0.0480481
-0.0480488
-0.0480495
-0.0480501
-0.0480508
-0.0480514
-0.048052
-0.0480524
-0.0480527
-0.0480527
-0.0480524
-0.0480516
-0.0480506
-0.0480494
-0.0480481
-0.0480465
-0.0480446
-0.0480432
-0.048042
-0.0480408
-0.0480394
-0.0480371
-0.0480329
-0.0480254
-0.0480135
-0.0479977
-0.0479797
-0.0479514
-0.0479594
-0.0415234
-0.0300591
-0.0164126
-0.00606139
-0.00136346
-0.000149759
-4.35379e-06
-0.0480458
-0.0480458
-0.0480458
-0.0480458
-0.0480459
-0.0480461
-0.0480464
-0.0480469
-0.0480474
-0.0480481
-0.0480489
-0.0480497
-0.0480505
-0.0480512
-0.048052
-0.0480528
-0.0480536
-0.0480544
-0.0480551
-0.0480556
-0.0480557
-0.0480553
-0.048054
-0.0480518
-0.048049
-0.0480458
-0.0480423
-0.0480382
-0.0480345
-0.0480322
-0.0480309
-0.0480299
-0.0480288
-0.0480271
-0.0480237
-0.0480177
-0.0480091
-0.0479989
-0.0479887
-0.0479797
-0.0479768
-0.0429657
-0.0322719
-0.0186048
-0.00723286
-0.00167928
-0.000187004
-5.43564e-06
-0.0480447
-0.0480447
-0.0480448
-0.0480449
-0.0480451
-0.0480454
-0.0480459
-0.0480466
-0.0480475
-0.0480486
-0.0480498
-0.048051
-0.0480522
-0.0480535
-0.0480548
-0.0480561
-0.0480576
-0.048059
-0.0480604
-0.0480615
-0.0480622
-0.0480618
-0.0480597
-0.0480561
-0.0480512
-0.0480455
-0.0480395
-0.0480331
-0.0480269
-0.0480224
-0.0480191
-0.0480168
-0.0480151
-0.0480136
-0.0480117
-0.0480086
-0.0480045
-0.0480005
-0.0479989
-0.0479977
-0.0479985
-0.0436516
-0.0339348
-0.020579
-0.00840253
-0.00201122
-0.000226485
-6.58866e-06
-0.0480431
-0.0480431
-0.0480432
-0.0480434
-0.0480437
-0.0480443
-0.0480451
-0.0480463
-0.0480477
-0.0480494
-0.0480512
-0.0480531
-0.0480551
-0.0480571
-0.0480592
-0.0480616
-0.0480641
-0.0480667
-0.0480693
-0.0480717
-0.0480733
-0.0480733
-0.0480705
-0.048065
-0.0480572
-0.0480479
-0.0480388
-0.0480305
-0.0480231
-0.0480175
-0.0480136
-0.048011
-0.0480094
-0.0480083
-0.0480072
-0.0480059
-0.0480047
-0.0480045
-0.0480091
-0.0480135
-0.0480141
-0.0440392
-0.0353111
-0.0223582
-0.00952888
-0.00234446
-0.000266734
-7.76797e-06
-0.0480415
-0.0480416
-0.0480417
-0.048042
-0.0480426
-0.0480435
-0.0480448
-0.0480465
-0.0480486
-0.0480511
-0.0480539
-0.0480568
-0.0480598
-0.0480629
-0.0480662
-0.04807
-0.048074
-0.0480782
-0.0480828
-0.0480869
-0.04809
-0.048091
-0.0480876
-0.0480798
-0.048068
-0.0480534
-0.0480398
-0.0480289
-0.0480204
-0.0480143
-0.0480101
-0.0480075
-0.048006
-0.0480053
-0.048005
-0.0480051
-0.0480059
-0.0480086
-0.0480177
-0.0480254
-0.0480241
-0.044361
-0.0365265
-0.0239638
-0.0105881
-0.00266821
-0.000306341
-8.93113e-06
-0.0480402
-0.0480403
-0.0480405
-0.0480409
-0.0480418
-0.0480431
-0.048045
-0.0480475
-0.0480506
-0.0480542
-0.0480582
-0.0480625
-0.048067
-0.0480716
-0.0480765
-0.0480822
-0.0480884
-0.0480947
-0.0481017
-0.0481082
-0.0481133
-0.0481147
-0.0481102
-0.0481001
-0.0480842
-0.0480642
-0.048045
-0.0480296
-0.0480192
-0.0480122
-0.0480077
-0.048005
-0.0480038
-0.0480035
-0.0480039
-0.048005
-0.0480072
-0.0480117
-0.0480237
-0.0480329
-0.0480295
-0.0447213
-0.0376384
-0.0254112
-0.0115675
-0.00297509
-0.000344242
-1.00454e-05
-0.0480391
-0.0480392
-0.0480395
-0.0480402
-0.0480414
-0.0480434
-0.0480461
-0.0480496
-0.0480539
-0.0480591
-0.0480648
-0.0480709
-0.0480773
-0.0480839
-0.048091
-0.0480992
-0.0481082
-0.048117
-0.0481267
-0.0481342
-0.0481427
-0.0481478
-0.0481408
-0.0481253
-0.048102
-0.0480738
-0.0480502
-0.0480331
-0.0480194
-0.0480111
-0.0480061
-0.0480035
-0.0480025
-0.0480026
-0.0480035
-0.0480053
-0.0480083
-0.0480136
-0.0480271
-0.0480371
-0.0480321
-0.0451481
-0.0386653
-0.0267111
-0.0124621
-0.00326089
-0.000379785
-1.10905e-05
-0.0480384
-0.0480386
-0.048039
-0.04804
-0.0480417
-0.0480444
-0.0480481
-0.048053
-0.048059
-0.0480661
-0.0480741
-0.0480826
-0.0480915
-0.0481008
-0.0481105
-0.0481218
-0.0481338
-0.0481438
-0.0481585
-0.0481713
-0.0481729
-0.0480109
-0.0478829
-0.0478224
-0.0478342
-0.0479281
-0.0480545
-0.0480324
-0.04802
-0.0480103
-0.0480051
-0.0480027
-0.048002
-0.0480025
-0.0480037
-0.048006
-0.0480093
-0.0480151
-0.0480288
-0.0480394
-0.0480335
-0.0456298
-0.0396075
-0.0278723
-0.0132725
-0.00352404
-0.000412679
-1.20571e-05
-0.0480382
-0.0480384
-0.0480391
-0.0480405
-0.0480428
-0.0480464
-0.0480515
-0.0480581
-0.0480663
-0.0480759
-0.0480868
-0.0480985
-0.0481106
-0.048123
-0.0481357
-0.0481499
-0.0481656
-0.0481814
-0.04819
-0.0479612
-0.0477334
-0.0475785
-0.0475147
-0.0475214
-0.0475878
-0.0476995
-0.0478477
-0.0480321
-0.048017
-0.0480098
-0.0480047
-0.0480028
-0.0480027
-0.0480035
-0.048005
-0.0480074
-0.048011
-0.0480168
-0.0480299
-0.0480408
-0.0480348
-0.0461387
-0.0404603
-0.028904
-0.0140027
-0.00376472
-0.000442891
-1.2944e-05
-0.0480386
-0.0480389
-0.0480399
-0.0480417
-0.0480449
-0.0480497
-0.0480565
-0.0480653
-0.0480762
-0.0480891
-0.0481036
-0.0481192
-0.0481353
-0.0481511
-0.0481656
-0.0481862
-0.0482035
-0.0480321
-0.047718
-0.0474682
-0.0473029
-0.0471989
-0.0471778
-0.0472302
-0.0473417
-0.0474961
-0.0476677
-0.0478486
-0.048015
-0.0480084
-0.048006
-0.0480047
-0.048005
-0.0480061
-0.0480076
-0.04801
-0.0480136
-0.0480191
-0.0480308
-0.048042
-0.0480362
-0.046646
-0.0412211
-0.0298164
-0.0146587
-0.00398406
-0.00047053
-1.37546e-05
-0.0480396
-0.0480401
-0.0480414
-0.0480438
-0.048048
-0.0480544
-0.0480632
-0.0480748
-0.0480891
-0.0481061
-0.0481253
-0.0481455
-0.0481656
-0.0481856
-0.0482066
-0.0482088
-0.047832
-0.0474892
-0.0472119
-0.0469896
-0.0468509
-0.0467957
-0.0468249
-0.0469237
-0.0470742
-0.0472587
-0.0474623
-0.0476598
-0.0478597
-0.0480088
-0.0480084
-0.0480097
-0.0480103
-0.048011
-0.0480121
-0.0480142
-0.0480175
-0.0480223
-0.0480322
-0.0480431
-0.0480377
-0.0471297
-0.0418917
-0.0306204
-0.0152467
-0.00418344
-0.000495757
-1.44939e-05
-0.0480412
-0.048042
-0.0480436
-0.0480468
-0.0480523
-0.0480605
-0.048072
-0.0480869
-0.0481055
-0.0481276
-0.0481521
-0.0481771
-0.0482032
-0.0482264
-0.0480808
-0.0476442
-0.0472586
-0.0469316
-0.0466618
-0.0464757
-0.0463843
-0.0463824
-0.0464595
-0.0465985
-0.0467818
-0.0469936
-0.0472202
-0.0474496
-0.0476577
-0.0478595
-0.0480149
-0.0480169
-0.0480198
-0.0480193
-0.0480191
-0.0480204
-0.048023
-0.0480269
-0.0480345
-0.0480445
-0.0480392
-0.0475766
-0.0424776
-0.0313262
-0.0157723
-0.00436429
-0.000518749
-1.51676e-05
-0.0480434
-0.0480444
-0.0480465
-0.0480507
-0.0480577
-0.0480682
-0.0480828
-0.048102
-0.0481257
-0.0481536
-0.0481838
-0.0482166
-0.0482428
-0.0479557
-0.0474792
-0.0470464
-0.0466441
-0.046321
-0.0460862
-0.0459511
-0.0459135
-0.0459615
-0.0460799
-0.0462521
-0.0464631
-0.0467007
-0.046953
-0.0472072
-0.0474494
-0.0476594
-0.047848
-0.0480319
-0.0480323
-0.048033
-0.0480295
-0.0480289
-0.0480304
-0.0480331
-0.0480382
-0.0480465
-0.0480415
-0.0479782
-0.0429829
-0.0319428
-0.0162419
-0.00452856
-0.000539761
-1.57837e-05
-0.0480459
-0.0480471
-0.0480499
-0.0480551
-0.048064
-0.0480773
-0.0480958
-0.04812
-0.0481497
-0.0481837
-0.0482233
-0.0482536
-0.0478394
-0.0473169
-0.0468235
-0.0463636
-0.0459765
-0.0456895
-0.0455071
-0.0454278
-0.0454419
-0.0455346
-0.0456893
-0.0458913
-0.0461289
-0.0463923
-0.0466716
-0.0469528
-0.0472197
-0.0474617
-0.0476671
-0.0478468
-0.0480543
-0.0480501
-0.0480449
-0.0480397
-0.0480388
-0.0480395
-0.0480422
-0.0480481
-0.0480442
-0.0480325
-0.0434103
-0.0324751
-0.0166644
-0.00467926
-0.000559154
-1.63522e-05
-0.0480483
-0.0480498
-0.0480533
-0.0480599
-0.048071
-0.0480876
-0.0481107
-0.0481407
-0.0481765
-0.048221
-0.0482558
-0.0477312
-0.0471629
-0.0466071
-0.0460866
-0.04564
-0.0452946
-0.0450608
-0.0449365
-0.0449131
-0.0449762
-0.0451095
-0.0452977
-0.045529
-0.0457943
-0.0460855
-0.0463921
-0.0467002
-0.046993
-0.0472579
-0.0474952
-0.0476985
-0.0479264
-0.0480737
-0.0480642
-0.0480534
-0.0480478
-0.0480454
-0.0480457
-0.0480494
-0.0480461
-0.0480348
-0.0437724
-0.0329321
-0.017037
-0.0048145
-0.000576681
-1.68667e-05
-0.04805
-0.0480518
-0.048056
-0.0480642
-0.048078
-0.0480985
-0.0481268
-0.0481631
-0.0482092
-0.0482406
-0.0476278
-0.0470186
-0.0464028
-0.0458207
-0.0453143
-0.0449105
-0.0446216
-0.0444492
-0.0443851
-0.0444156
-0.0445244
-0.0446957
-0.0449169
-0.0451788
-0.0454739
-0.0457941
-0.0461284
-0.0464624
-0.0467809
-0.0470732
-0.0473405
-0.0475866
-0.0478325
-0.048102
-0.0480842
-0.0480679
-0.0480571
-0.0480512
-0.048049
-0.0480506
-0.0480474
-0.0480367
-0.0440795
-0.0333215
-0.0173584
-0.00493246
-0.000592042
-1.7318e-05
-0.0480498
-0.048052
-0.0480571
-0.0480671
-0.048084
-0.0481089
-0.0481429
-0.0481879
-0.0481717
-0.0475265
-0.046883
-0.0462127
-0.0455712
-0.0450047
-0.0445416
-0.0441967
-0.0439736
-0.043866
-0.0438611
-0.0439427
-0.0440945
-0.0443031
-0.0445582
-0.0448523
-0.0451786
-0.0455286
-0.0458907
-0.0462512
-0.0465974
-0.0469224
-0.0472288
-0.04752
-0.0478206
-0.0481253
-0.0481001
-0.0480799
-0.048065
-0.0480561
-0.0480518
-0.0480516
-0.0480485
-0.0480383
-0.0443371
-0.0336485
-0.0176302
-0.00503279
-0.000605132
-1.77026e-05
-0.0480461
-0.0480487
-0.0480547
-0.0480668
-0.0480873
-0.0481168
-0.0481575
-0.0480766
-0.0474195
-0.046754
-0.0460358
-0.04534
-0.0447156
-0.0441934
-0.0437914
-0.0435157
-0.0433622
-0.0433192
-0.0433708
-0.0435007
-0.0436943
-0.0439401
-0.0442302
-0.044558
-0.0449166
-0.0452971
-0.0456885
-0.0460789
-0.0464582
-0.0468235
-0.0471763
-0.0475133
-0.0478812
-0.0481408
-0.0481103
-0.0480876
-0.0480705
-0.0480597
-0.048054
-0.0480524
-0.0480493
-0.0480396
-0.0445483
-0.0339181
-0.0178556
-0.00511621
-0.000616012
-1.80219e-05
-0.0480358
-0.0480391
-0.0480463
-0.0480601
-0.048084
-0.0481183
-0.0479389
-0.0472879
-0.0466123
-0.0458666
-0.0451255
-0.0444482
-0.0438689
-0.0434098
-0.0430801
-0.0428783
-0.0427945
-0.0428135
-0.0429189
-0.0430952
-0.0433298
-0.0436137
-0.04394
-0.0443029
-0.0446953
-0.0451088
-0.0455337
-0.0459603
-0.046381
-0.0467941
-0.0471972
-0.0475768
-0.0480091
-0.0481479
-0.0481148
-0.048091
-0.0480733
-0.0480618
-0.0480553
-0.0480527
-0.0480499
-0.0480409
-0.0447167
-0.0341357
-0.0180387
-0.00518409
-0.000624852
-1.82809e-05
-0.048015
-0.0480178
-0.0480241
-0.0480411
-0.0480674
-0.0477353
-0.0471182
-0.0464505
-0.0456925
-0.0449213
-0.0441994
-0.0435678
-0.0430534
-0.0426695
-0.0424176
-0.0422903
-0.042274
-0.0423524
-0.0425092
-0.0427307
-0.0430067
-0.0433297
-0.0436941
-0.0440942
-0.0445239
-0.0449755
-0.0454409
-0.0459122
-0.0463829
-0.0468493
-0.0473014
-0.0477316
-0.0481729
-0.0481428
-0.0481134
-0.0480901
-0.0480734
-0.0480622
-0.0480557
-0.0480527
-0.0480502
-0.048042
-0.0448467
-0.0343079
-0.018185
-0.00523839
-0.000631904
-1.8487e-05
-0.047968
-0.0479734
-0.0479825
-0.0479226
-0.0474467
-0.0468952
-0.0462533
-0.0455007
-0.044715
-0.0439614
-0.0432856
-0.0427203
-0.0422836
-0.0419811
-0.0418085
-0.0417544
-0.0418033
-0.0419385
-0.0421453
-0.0424121
-0.0427307
-0.0430951
-0.0435005
-0.0439423
-0.0444151
-0.0449123
-0.0454268
-0.0459499
-0.0464743
-0.0469881
-0.0474668
-0.0479597
-0.0481714
-0.0481342
-0.0481082
-0.0480869
-0.0480717
-0.0480616
-0.0480556
-0.0480524
-0.0480503
-0.0480429
-0.0449441
-0.0344426
-0.0183009
-0.00528146
-0.000637477
-1.86495e-05
-0.047855
-0.0477215
-0.047465
-0.0470833
-0.0466138
-0.0460027
-0.0452728
-0.0444901
-0.0437198
-0.0430115
-0.0424032
-0.041918
-0.0415663
-0.0413481
-0.0412547
-0.0412721
-0.0413841
-0.0415749
-0.0418317
-0.0421453
-0.0425091
-0.0429188
-0.0433706
-0.0438608
-0.0443845
-0.0449357
-0.0455061
-0.046085
-0.0466605
-0.0472107
-0.0477166
-0.0481901
-0.0481586
-0.0481268
-0.0481018
-0.0480828
-0.0480694
-0.0480604
-0.0480551
-0.048052
-0.0480503
-0.0480437
-0.0450137
-0.0345466
-0.0183925
-0.00531558
-0.000641876
-1.87773e-05
-0.0470545
-0.0469214
-0.0466621
-0.0462603
-0.0456783
-0.0449839
-0.0442228
-0.0434533
-0.0427276
-0.0420876
-0.0415617
-0.0411655
-0.0409036
-0.0407712
-0.0407568
-0.0408449
-0.0410193
-0.0412661
-0.0415749
-0.0419385
-0.0423523
-0.0428134
-0.0433189
-0.0438656
-0.0444486
-0.04506
-0.0456885
-0.0463199
-0.0469305
-0.0474882
-0.0480311
-0.0481815
-0.0481439
-0.048117
-0.0480947
-0.0480782
-0.0480667
-0.048059
-0.0480544
-0.0480514
-0.0480502
-0.0480443
-0.0450607
-0.0346267
-0.0184656
-0.00534298
-0.000645388
-1.8879e-05
-0.0462831
-0.0460971
-0.0457449
-0.0452408
-0.0445997
-0.0438791
-0.0431305
-0.0424057
-0.0417496
-0.041195
-0.0407628
-0.0404628
-0.0402947
-0.0402505
-0.0403161
-0.0404754
-0.0407138
-0.0410193
-0.0413841
-0.0418033
-0.042274
-0.0427943
-0.043362
-0.0439732
-0.0446211
-0.0452939
-0.0459756
-0.0466432
-0.0472578
-0.0478313
-0.0482036
-0.0481657
-0.0481338
-0.0481082
-0.0480884
-0.0480741
-0.0480641
-0.0480576
-0.0480536
-0.0480508
-0.0480501
-0.0480449
-0.0450946
-0.0346934
-0.0185282
-0.00536622
-0.000648202
-1.89614e-05
-0.0452372
-0.0450181
-0.044615
-0.0440648
-0.0434098
-0.0427054
-0.0420041
-0.041352
-0.0407857
-0.040331
-0.0400032
-0.0398073
-0.039739
-0.0397869
-0.0399355
-0.0401693
-0.0404755
-0.0408449
-0.0412722
-0.0417545
-0.0422903
-0.0428782
-0.0435155
-0.0441963
-0.04491
-0.0456394
-0.0463629
-0.0470458
-0.0476437
-0.0482084
-0.0481863
-0.04815
-0.0481218
-0.0480992
-0.0480822
-0.04807
-0.0480616
-0.0480561
-0.0480528
-0.0480501
-0.0480499
-0.0480453
-0.0451136
-0.0347451
-0.0185794
-0.00538545
-0.000650525
-1.90292e-05
-0.0439423
-0.0437084
-0.0432891
-0.0427386
-0.0421108
-0.0414616
-0.0408394
-0.0402842
-0.0398267
-0.0394877
-0.0392777
-0.039197
-0.0392371
-0.0393838
-0.0396213
-0.0399355
-0.0403161
-0.0407569
-0.0412548
-0.0418086
-0.0424176
-0.0430801
-0.0437912
-0.0445414
-0.045314
-0.0460862
-0.0468231
-0.0474789
-0.0480805
-0.0482067
-0.0481657
-0.0481357
-0.0481105
-0.048091
-0.0480765
-0.0480662
-0.0480593
-0.0480548
-0.048052
-0.0480495
-0.0480497
-0.0480456
-0.0451202
-0.0347842
-0.0186213
-0.00540154
-0.000652468
-1.90858e-05
-0.0423682
-0.0421445
-0.0417506
-0.0412467
-0.0406899
-0.0401322
-0.0396186
-0.0391853
-0.0388592
-0.0386565
-0.0385825
-0.0386321
-0.0387929
-0.0390486
-0.0393839
-0.039787
-0.0402506
-0.0407713
-0.0413482
-0.0419812
-0.0426696
-0.0434098
-0.0441934
-0.0450046
-0.0458205
-0.046607
-0.0473168
-0.0479556
-0.0482264
-0.0481856
-0.0481511
-0.048123
-0.0481008
-0.0480839
-0.0480716
-0.0480629
-0.0480571
-0.0480535
-0.0480512
-0.0480488
-0.0480494
-0.0480459
-0.0451171
-0.0348132
-0.0186555
-0.00541493
-0.000654085
-1.91329e-05
-0.0404712
-0.0402894
-0.0399697
-0.0395619
-0.0391183
-0.0386883
-0.0383159
-0.0380356
-0.0378705
-0.0378316
-0.0379176
-0.0381177
-0.0384151
-0.0387929
-0.0392372
-0.0397392
-0.0402949
-0.0409037
-0.0415665
-0.0422838
-0.0430536
-0.043869
-0.0447157
-0.0455713
-0.0464029
-0.0471629
-0.0478395
-0.0482428
-0.0482032
-0.0481656
-0.0481352
-0.0481106
-0.0480915
-0.0480773
-0.048067
-0.0480598
-0.0480551
-0.0480522
-0.0480505
-0.0480481
-0.0480491
-0.0480461
-0.0451069
-0.0348338
-0.0186831
-0.00542597
-0.000655413
-1.91715e-05
-0.0382048
-0.0380981
-0.0379019
-0.0376405
-0.0373557
-0.0370961
-0.0369063
-0.0368195
-0.0368542
-0.0370142
-0.0372902
-0.0376646
-0.0381177
-0.0386322
-0.0391971
-0.0398075
-0.040463
-0.0411657
-0.0419182
-0.0427205
-0.043568
-0.0444483
-0.0453402
-0.0462128
-0.0470187
-0.0477313
-0.0482535
-0.0482166
-0.0481771
-0.0481454
-0.0481192
-0.0480984
-0.0480826
-0.0480709
-0.0480625
-0.0480568
-0.0480531
-0.048051
-0.0480497
-0.0480475
-0.0480489
-0.0480463
-0.0450921
-0.0348482
-0.0187054
-0.00543513
-0.000656512
-1.92034e-05
-0.0355164
-0.0355179
-0.0354958
-0.0354357
-0.0353643
-0.035329
-0.0353752
-0.0355335
-0.0358157
-0.036216
-0.0367155
-0.0372902
-0.0379177
-0.0385826
-0.0392779
-0.0400034
-0.040763
-0.0415619
-0.0424034
-0.0432858
-0.0441996
-0.0451257
-0.046036
-0.0468831
-0.0476278
-0.0482557
-0.0482232
-0.0481838
-0.048152
-0.0481252
-0.0481036
-0.0480868
-0.048074
-0.0480648
-0.0480582
-0.0480539
-0.0480512
-0.0480498
-0.0480489
-0.0480468
-0.0480486
-0.0480464
-0.0450755
-0.0348594
-0.0187248
-0.00544324
-0.000657489
-1.92318e-05
-0.0323715
-0.0325126
-0.0327157
-0.0329188
-0.033127
-0.0333829
-0.0337299
-0.0341934
-0.0347759
-0.0354597
-0.036216
-0.0370143
-0.0378317
-0.0386567
-0.0394879
-0.0403312
-0.0411952
-0.0420877
-0.0430116
-0.0439616
-0.0449214
-0.0458668
-0.046754
-0.0475265
-0.0482406
-0.0482209
-0.0481837
-0.0481535
-0.0481275
-0.0481061
-0.048089
-0.0480759
-0.0480661
-0.0480591
-0.0480542
-0.0480511
-0.0480493
-0.0480486
-0.0480481
-0.0480462
-0.0480484
-0.0480465
-0.04506
-0.0348708
-0.0187442
-0.00545149
-0.000658505
-1.92614e-05
-0.0287793
-0.0290883
-0.0295678
-0.0301011
-0.0306637
-0.0312858
-0.0320039
-0.0328349
-0.0337691
-0.0347759
-0.0358158
-0.0368544
-0.0378707
-0.0388594
-0.0398268
-0.0407858
-0.0417498
-0.0427277
-0.0437198
-0.0447151
-0.0456926
-0.0466124
-0.0474194
-0.0481716
-0.0482091
-0.0481764
-0.0481496
-0.0481257
-0.0481055
-0.0480891
-0.0480762
-0.0480663
-0.048059
-0.0480539
-0.0480506
-0.0480486
-0.0480477
-0.0480475
-0.0480474
-0.0480457
-0.0480481
-0.0480466
-0.0450484
-0.0348866
-0.0187674
-0.00546128
-0.000659751
-1.92977e-05
-0.0248081
-0.0253103
-0.026115
-0.0270453
-0.0280363
-0.0290974
-0.0302524
-0.0315063
-0.032835
-0.0341935
-0.0355337
-0.0368196
-0.0380358
-0.0391855
-0.0402843
-0.0413521
-0.0424058
-0.0434533
-0.0444901
-0.0455007
-0.0464504
-0.0472878
-0.0480765
-0.0481879
-0.048163
-0.0481406
-0.04812
-0.0481019
-0.0480869
-0.0480748
-0.0480653
-0.0480581
-0.048053
-0.0480496
-0.0480475
-0.0480465
-0.0480463
-0.0480466
-0.0480469
-0.0480452
-0.048048
-0.0480467
-0.0450437
-0.0349103
-0.0187977
-0.00547392
-0.000661405
-1.93461e-05
-0.0205816
-0.021298
-0.0224689
-0.0238518
-0.0253324
-0.0268909
-0.0285345
-0.0302525
-0.032004
-0.03373
-0.0353754
-0.0369064
-0.038316
-0.0396186
-0.0408395
-0.0420042
-0.0431305
-0.0442227
-0.0452727
-0.0462532
-0.0471181
-0.0479387
-0.0481574
-0.0481428
-0.0481268
-0.0481106
-0.0480958
-0.0480828
-0.048072
-0.0480632
-0.0480565
-0.0480515
-0.0480481
-0.0480461
-0.048045
-0.0480448
-0.0480451
-0.0480459
-0.0480464
-0.0480449
-0.0480478
-0.0480467
-0.0450479
-0.0349448
-0.0188372
-0.00549033
-0.000663594
-1.94102e-05
-0.0162605
-0.017201
-0.0187602
-0.0206275
-0.0226339
-0.0247264
-0.026891
-0.0290975
-0.0312859
-0.033383
-0.0353292
-0.0370961
-0.0386884
-0.0401323
-0.0414616
-0.0427054
-0.0438791
-0.0449838
-0.0460026
-0.046895
-0.0477351
-0.0481183
-0.0481168
-0.0481089
-0.0480985
-0.0480876
-0.0480773
-0.0480682
-0.0480605
-0.0480544
-0.0480497
-0.0480464
-0.0480444
-0.0480434
-0.0480431
-0.0480435
-0.0480443
-0.0480454
-0.0480461
-0.0480447
-0.0480478
-0.0480468
-0.0450617
-0.0349906
-0.0188867
-0.00551075
-0.000666349
-1.94911e-05
-0.0120218
-0.0131751
-0.0151105
-0.0174575
-0.0199954
-0.022634
-0.0253325
-0.0280365
-0.0306639
-0.0331272
-0.0353645
-0.0373558
-0.0391184
-0.04069
-0.0421108
-0.0434098
-0.0445997
-0.0456782
-0.0466137
-0.0474465
-0.0480674
-0.048084
-0.0480873
-0.048084
-0.048078
-0.048071
-0.048064
-0.0480577
-0.0480523
-0.048048
-0.0480449
-0.0480428
-0.0480417
-0.0480414
-0.0480418
-0.0480426
-0.0480437
-0.0480451
-0.0480459
-0.0480445
-0.0480477
-0.0480468
-0.0450842
-0.0350461
-0.0189445
-0.0055345
-0.000669575
-1.95858e-05
-0.00805597
-0.00938301
-0.0116392
-0.0144179
-0.0174575
-0.0206275
-0.023852
-0.0270454
-0.0301013
-0.0329189
-0.0354359
-0.0376407
-0.0395621
-0.0412467
-0.0427386
-0.0440648
-0.0452408
-0.0462601
-0.0470831
-0.0479223
-0.0480411
-0.0480601
-0.0480668
-0.0480671
-0.0480642
-0.0480599
-0.0480551
-0.0480507
-0.0480468
-0.0480438
-0.0480417
-0.0480405
-0.04804
-0.0480402
-0.0480409
-0.048042
-0.0480434
-0.0480449
-0.0480458
-0.0480445
-0.0480477
-0.0480468
-0.0451129
-0.0351068
-0.0190062
-0.00555979
-0.000673026
-1.96873e-05
-0.00458833
-0.00602947
-0.0085169
-0.0116392
-0.0151105
-0.0187603
-0.0224691
-0.0261152
-0.029568
-0.0327159
-0.0354959
-0.037902
-0.0399697
-0.0417506
-0.0432891
-0.044615
-0.0457449
-0.0466621
-0.0474649
-0.0479825
-0.0480241
-0.0480463
-0.0480547
-0.0480571
-0.0480561
-0.0480533
-0.0480499
-0.0480465
-0.0480436
-0.0480414
-0.0480399
-0.0480391
-0.048039
-0.0480395
-0.0480405
-0.0480417
-0.0480432
-0.0480448
-0.0480458
-0.0480445
-0.0480477
-0.0480468
-0.0451429
-0.0351655
-0.0190649
-0.00558387
-0.000676321
-1.97843e-05
-0.00191193
-0.00340773
-0.00602948
-0.00938304
-0.0131752
-0.0172011
-0.0212981
-0.0253105
-0.0290884
-0.0325127
-0.035518
-0.0380981
-0.0402894
-0.0421445
-0.0437084
-0.0450181
-0.0460971
-0.0469214
-0.0477214
-0.0479734
-0.0480178
-0.0480391
-0.0480487
-0.048052
-0.0480518
-0.0480498
-0.0480471
-0.0480444
-0.048042
-0.0480401
-0.0480389
-0.0480384
-0.0480386
-0.0480392
-0.0480403
-0.0480416
-0.0480431
-0.0480447
-0.0480458
-0.0480445
-0.0480477
-0.0480467
-0.0451687
-0.0352132
-0.0191122
-0.00560325
-0.000678976
-1.98625e-05
-0.000400581
-0.00191193
-0.00458833
-0.00805599
-0.0120218
-0.0162606
-0.0205817
-0.0248083
-0.0287795
-0.0323716
-0.0355165
-0.0382049
-0.0404713
-0.0423683
-0.0439424
-0.0452372
-0.0462831
-0.0470545
-0.0478549
-0.047968
-0.048015
-0.0480358
-0.0480461
-0.0480498
-0.04805
-0.0480483
-0.0480459
-0.0480434
-0.0480412
-0.0480396
-0.0480386
-0.0480382
-0.0480384
-0.0480391
-0.0480402
-0.0480415
-0.0480431
-0.0480447
-0.0480458
-0.0480445
-0.0480477
-0.0480468
-0.0451841
-0.0352407
-0.0191393
-0.00561433
-0.000680497
-1.99073e-05
)
;

boundaryField
{
    inlet
    {
        type            cyclic;
    }
    outlet
    {
        type            cyclic;
    }
    walls
    {
        type            calculated;
        value           nonuniform List<scalar> 
96
(
-4.11153e-08
-1.7851e-07
-4.33222e-07
-8.0024e-07
-1.28147e-06
-1.8817e-06
-2.60733e-06
-3.46374e-06
-4.44803e-06
-5.54054e-06
-6.70459e-06
-7.89527e-06
-9.06975e-06
-1.01948e-05
-1.12498e-05
-1.22251e-05
-1.31196e-05
-1.39368e-05
-1.46817e-05
-1.53604e-05
-1.59809e-05
-1.65535e-05
-1.70716e-05
-1.75262e-05
-1.79133e-05
-1.82347e-05
-1.84952e-05
-1.87025e-05
-1.88657e-05
-1.89939e-05
-1.90959e-05
-1.91783e-05
-1.92462e-05
-1.93027e-05
-1.93497e-05
-1.93882e-05
-1.94199e-05
-1.94482e-05
-1.94776e-05
-1.95139e-05
-1.95623e-05
-1.96267e-05
-1.9708e-05
-1.98033e-05
-1.99054e-05
-2.0003e-05
-2.00817e-05
-2.01268e-05
-2.01268e-05
-2.00817e-05
-2.0003e-05
-1.99054e-05
-1.98032e-05
-1.97079e-05
-1.96267e-05
-1.95624e-05
-1.95141e-05
-1.94779e-05
-1.94486e-05
-1.94205e-05
-1.93888e-05
-1.93503e-05
-1.93032e-05
-1.92465e-05
-1.91785e-05
-1.90958e-05
-1.89936e-05
-1.88651e-05
-1.87017e-05
-1.84943e-05
-1.82336e-05
-1.79123e-05
-1.75251e-05
-1.70707e-05
-1.65526e-05
-1.59802e-05
-1.53599e-05
-1.46813e-05
-1.39365e-05
-1.31194e-05
-1.22249e-05
-1.12497e-05
-1.01948e-05
-9.06973e-06
-7.89527e-06
-6.7046e-06
-5.54055e-06
-4.44804e-06
-3.46375e-06
-2.60733e-06
-1.8817e-06
-1.28147e-06
-8.00241e-07
-4.33223e-07
-1.78511e-07
-4.11153e-08
)
;
    }
    symPlanes
    {
        type            symmetry;
    }
}


// ************************************************************************* //
