/*--------------------------------*- C++ -*----------------------------------*\
| =========                 |                                                 |
| \\      /  F ield         | OpenFOAM: The Open Source CFD Toolbox           |
|  \\    /   O peration     | Version:  2412                                  |
|   \\  /    A nd           | Website:  www.openfoam.com                      |
|    \\/     M anipulation  |                                                 |
\*---------------------------------------------------------------------------*/
FoamFile
{
    version     2.0;
    format      ascii;
    arch        "LSB;label=32;scalar=64";
    class       volScalarField;
    location    "2130";
    object      I3;
}
// * * * * * * * * * * * * * * * * * * * * * * * * * * * * * * * * * * * * * //

dimensions      [0 0 0 0 0 0 0];

internalField   nonuniform List<scalar> 
2304
(
2.64827e-10
2.65812e-10
2.65088e-10
2.64078e-10
2.6273e-10
2.60973e-10
2.58754e-10
2.56039e-10
2.52808e-10
2.4907e-10
2.44839e-10
2.40159e-10
2.35049e-10
2.29501e-10
2.23416e-10
2.16681e-10
2.09065e-10
2.00546e-10
1.91212e-10
1.80757e-10
1.69405e-10
1.57225e-10
1.44688e-10
1.32226e-10
1.20457e-10
1.10064e-10
1.00934e-10
9.01749e-11
7.09653e-11
5.02981e-11
2.94689e-11
8.95024e-12
-1.01853e-11
-2.60494e-11
-3.62961e-11
-3.88334e-11
-3.27761e-11
-1.94835e-11
-3.10552e-12
1.05893e-11
1.61654e-11
1.32829e-11
7.31502e-12
2.85194e-12
7.55377e-13
1.07643e-13
2.89306e-15
2.03491e-16
-4.26818e-08
-4.25031e-08
-4.10041e-08
-3.92068e-08
-3.7417e-08
-3.58754e-08
-3.47378e-08
-3.40734e-08
-3.3877e-08
-3.40821e-08
-3.45904e-08
-3.52858e-08
-3.60756e-08
-3.69114e-08
-3.78055e-08
-3.88017e-08
-3.99745e-08
-4.13074e-08
-4.27439e-08
-4.42552e-08
-4.56398e-08
-4.67152e-08
-4.71812e-08
-4.67821e-08
-4.52736e-08
-4.24726e-08
-3.86005e-08
-3.51387e-08
-3.44333e-08
-3.43401e-08
-3.42897e-08
-3.4244e-08
-3.39267e-08
-3.27773e-08
-3.01027e-08
-2.53439e-08
-1.84254e-08
-1.00665e-08
-1.82773e-09
4.3552e-09
6.82183e-09
5.74104e-09
3.29924e-09
1.38467e-09
4.23456e-10
8.28359e-11
5.05156e-12
2.89643e-15
-3.23804e-06
-3.23503e-06
-3.194e-06
-3.14464e-06
-3.09552e-06
-3.05354e-06
-3.02344e-06
-3.00763e-06
-3.00634e-06
-3.01799e-06
-3.03991e-06
-3.0688e-06
-3.10194e-06
-3.13796e-06
-3.17732e-06
-3.22158e-06
-3.27313e-06
-3.33144e-06
-3.39379e-06
-3.45994e-06
-3.52293e-06
-3.57577e-06
-3.60746e-06
-3.60799e-06
-3.56801e-06
-3.47946e-06
-3.34407e-06
-3.19838e-06
-3.1064e-06
-3.0093e-06
-2.89067e-06
-2.74892e-06
-2.57453e-06
-2.35026e-06
-2.05716e-06
-1.68402e-06
-1.23895e-06
-7.58741e-07
-3.07388e-07
4.43014e-08
2.27927e-07
2.34151e-07
1.5049e-07
6.93941e-08
2.22585e-08
3.3683e-09
8.28546e-11
1.07711e-13
2.11858e-05
2.12348e-05
2.10792e-05
2.08814e-05
2.06493e-05
2.03857e-05
2.00882e-05
1.97501e-05
1.93629e-05
1.89184e-05
1.84091e-05
1.78297e-05
1.71736e-05
1.64299e-05
1.55809e-05
1.46037e-05
1.34699e-05
1.21715e-05
1.07242e-05
9.08447e-06
7.26701e-06
5.28883e-06
3.19888e-06
1.04745e-06
-1.1118e-06
-3.21663e-06
-5.20682e-06
-7.11086e-06
-9.11185e-06
-1.10102e-05
-1.27339e-05
-1.42204e-05
-1.53218e-05
-1.58275e-05
-1.55165e-05
-1.42301e-05
-1.19433e-05
-8.81321e-06
-5.1782e-06
-1.42684e-06
1.50309e-06
2.53245e-06
1.96668e-06
9.49421e-07
2.47387e-07
2.22603e-08
4.23543e-10
7.55635e-13
0.000132091
0.000132943
0.000133116
0.000133266
0.00013326
0.000132988
0.00013237
0.000131368
0.000129977
0.000128222
0.000126142
0.000123789
0.000121205
0.000118412
0.000115403
0.000112156
0.000108633
0.000104835
0.0001007
9.63213e-05
9.1816e-05
8.72629e-05
8.28285e-05
7.86088e-05
7.45925e-05
7.06902e-05
6.68177e-05
6.20815e-05
5.27416e-05
4.35803e-05
3.47441e-05
2.65931e-05
1.96407e-05
1.432e-05
1.07169e-05
8.36794e-06
6.325e-06
3.69439e-06
6.82863e-07
1.24727e-06
7.39511e-06
1.19318e-05
9.9908e-06
4.58724e-06
9.49461e-07
6.94009e-08
1.38489e-09
2.85255e-12
-1.73308e-05
-1.63885e-05
-1.45877e-05
-1.25392e-05
-1.07154e-05
-9.50124e-06
-9.15544e-06
-9.79572e-06
-1.14187e-05
-1.39223e-05
-1.71435e-05
-2.0882e-05
-2.49473e-05
-2.91888e-05
-3.35222e-05
-3.79013e-05
-4.23148e-05
-4.67016e-05
-5.1171e-05
-5.53389e-05
-5.8819e-05
-6.13458e-05
-6.24537e-05
-6.1881e-05
-5.97335e-05
-5.65095e-05
-5.2666e-05
-4.70962e-05
-3.78728e-05
-2.72198e-05
-1.52874e-05
-1.94203e-06
1.24208e-05
2.66504e-05
3.88857e-05
4.69456e-05
4.90671e-05
4.44895e-05
3.20568e-05
2.08796e-05
2.44308e-05
3.23347e-05
2.43745e-05
9.99114e-06
1.96681e-06
1.50506e-07
3.29967e-09
7.31616e-12
-0.000116621
-0.0001177
-0.000117267
-0.000116859
-0.00011663
-0.000116731
-0.000117288
-0.000118408
-0.000120164
-0.000122593
-0.000125695
-0.000129429
-0.000133747
-0.000138631
-0.00014412
-0.000150319
-0.000157418
-0.000165467
-0.000174422
-0.000184552
-0.000195724
-0.000207951
-0.00022094
-0.000234557
-0.000249025
-0.00026506
-0.000283295
-0.00029692
-0.000278601
-0.000258986
-0.000240173
-0.000222736
-0.00020814
-0.000198321
-0.000194644
-0.000196716
-0.000201461
-0.000202582
-0.000198154
-0.000165206
-5.45394e-05
2.66635e-05
3.23362e-05
1.19328e-05
2.53273e-06
2.34178e-07
5.74177e-09
1.32847e-11
8.49978e-05
8.44781e-05
8.43094e-05
8.39271e-05
8.31958e-05
8.19799e-05
8.01591e-05
7.76228e-05
7.42872e-05
7.01057e-05
6.50687e-05
5.9218e-05
5.26086e-05
4.52678e-05
3.71555e-05
2.8138e-05
1.79463e-05
6.49432e-06
-6.2469e-06
-2.0697e-05
-3.68061e-05
-5.4787e-05
-7.44223e-05
-9.56327e-05
-0.000118587
-0.000143619
-0.000170955
-0.000200215
-0.000228634
-0.000260629
-0.000297364
-0.000337854
-0.000380283
-0.000421726
-0.000458087
-0.000485124
-0.00050042
-0.000503062
-0.0005076
-0.000553248
-0.0003522
-5.45344e-05
2.44348e-05
7.39707e-06
1.50355e-06
2.27971e-07
6.82294e-09
1.61682e-11
0.000144722
0.000145487
0.000145765
0.000145809
0.000145259
0.000143802
0.000141205
0.000137315
0.000132065
0.000125476
0.000117634
0.000108696
9.88337e-05
8.81767e-05
7.67585e-05
6.44824e-05
5.1049e-05
3.63984e-05
2.03621e-05
2.58007e-06
-1.68066e-05
-3.81449e-05
-6.10769e-05
-8.53526e-05
-0.000110854
-0.000137233
-0.000163759
-0.000192132
-0.000234865
-0.000280393
-0.000327426
-0.000373348
-0.000413979
-0.000444471
-0.000460925
-0.000462779
-0.00045487
-0.0004444
-0.000427953
-0.000529483
-0.00055324
-0.000165193
2.08873e-05
1.25035e-06
-1.42611e-06
4.43679e-08
4.35681e-09
1.05931e-11
0.000106642
0.000106902
0.000106689
0.00010609
0.000104783
0.000102492
9.89844e-05
9.40861e-05
8.76899e-05
7.97663e-05
7.03463e-05
5.95392e-05
4.74681e-05
3.42055e-05
1.97121e-05
3.77553e-06
-1.41141e-05
-3.40843e-05
-5.63967e-05
-8.18163e-05
-0.000110256
-0.000142439
-0.000177854
-0.000215953
-0.000256128
-0.000297271
-0.000338206
-0.000378727
-0.000417739
-0.00045154
-0.000477925
-0.000493477
-0.000494582
-0.000479356
-0.000449752
-0.000413134
-0.000381928
-0.000367085
-0.000361069
-0.000427948
-0.000507588
-0.000198135
3.20679e-05
6.87087e-07
-5.17718e-06
-3.07293e-07
-1.82546e-09
-3.10025e-12
0.000115232
0.00011489
0.000114242
0.000113035
0.000110954
0.000107727
0.000103113
9.69078e-05
8.8963e-05
7.92005e-05
6.75937e-05
5.42019e-05
3.90924e-05
2.22736e-05
3.63907e-06
-1.71331e-05
-4.07911e-05
-6.75012e-05
-9.76114e-05
-0.000132254
-0.000171111
-0.000215265
-0.000263709
-0.000315242
-0.000368425
-0.000420994
-0.000470775
-0.000517544
-0.000559022
-0.0005873
-0.000598058
-0.000588252
-0.00055721
-0.000508391
-0.000450522
-0.000397218
-0.000364479
-0.000361047
-0.00036708
-0.000444391
-0.000503046
-0.000202559
4.45034e-05
3.6996e-06
-8.81189e-06
-7.58615e-07
-1.00636e-08
-1.94768e-11
0.000134006
0.000133388
0.000132242
0.000130319
0.000127292
0.000122877
0.000116811
0.000108848
9.87925e-05
8.65071e-05
7.18923e-05
5.49377e-05
3.5633e-05
1.39032e-05
-1.04285e-05
-3.7793e-05
-6.92388e-05
-0.000104888
-0.000145023
-0.000191043
-0.000241825
-0.000298435
-0.00035927
-0.000422267
-0.000484811
-0.000542914
-0.000592175
-0.000630712
-0.000655165
-0.000658616
-0.00063841
-0.000595322
-0.000534334
-0.000465064
-0.00040091
-0.000356438
-0.000343845
-0.000364475
-0.00038192
-0.000454858
-0.0005004
-0.000201436
4.90827e-05
6.33097e-06
-1.19418e-05
-1.2388e-06
-1.84218e-08
-3.2768e-11
0.000148721
0.000147849
0.000146115
0.000143339
0.000139177
0.000133323
0.000125485
0.000115367
0.000102703
8.72768e-05
6.88787e-05
4.73919e-05
2.26937e-05
-5.40128e-06
-3.71395e-05
-7.30476e-05
-0.000114546
-0.000161432
-0.000213484
-0.000271801
-0.000333953
-0.000399888
-0.000468117
-0.000536275
-0.000600763
-0.000656034
-0.000694871
-0.000713174
-0.000708667
-0.00067898
-0.000626001
-0.000555842
-0.000478937
-0.000408756
-0.000359197
-0.000340492
-0.000356434
-0.00039721
-0.000413123
-0.000462764
-0.000485102
-0.000196691
4.69617e-05
8.37433e-06
-1.42285e-05
-1.68385e-06
-2.53399e-08
-3.88245e-11
0.000159917
0.000158703
0.000156294
0.000152528
0.000147028
0.000139465
0.000129502
0.000116773
0.000100924
8.16177e-05
5.84934e-05
3.12901e-05
-2.61916e-07
-3.64906e-05
-7.76979e-05
-0.000124402
-0.000178234
-0.000237894
-0.000302035
-0.000370315
-0.000441175
-0.000520978
-0.000595553
-0.000660225
-0.00071114
-0.000744052
-0.00075617
-0.000748362
-0.000711993
-0.000650979
-0.000573664
-0.000491274
-0.000417385
-0.000365446
-0.000345174
-0.000359194
-0.000400903
-0.000450512
-0.000449739
-0.000460908
-0.000458066
-0.000194622
3.89006e-05
1.07234e-05
-1.55148e-05
-2.05699e-06
-3.00987e-08
-3.62868e-11
0.000168424
0.000166796
0.000163603
0.000158675
0.000151584
0.000141966
0.000129424
0.000113498
9.37085e-05
6.95647e-05
4.05014e-05
6.08338e-06
-3.41476e-05
-8.07e-05
-0.000133787
-0.000193467
-0.00026055
-0.000331855
-0.00040683
-0.000496428
-0.000581309
-0.000653221
-0.000713322
-0.000758886
-0.000787305
-0.000795676
-0.000776018
-0.000727918
-0.000666042
-0.000584942
-0.0004988
-0.000422704
-0.000370071
-0.000350266
-0.000365444
-0.000408751
-0.000465055
-0.00050838
-0.000479344
-0.000444454
-0.000421706
-0.000198303
2.66626e-05
1.43263e-05
-1.58259e-05
-2.35013e-06
-3.27738e-08
-2.60405e-11
0.000173751
0.00017164
0.000167518
0.000161204
0.000152198
0.000140084
0.000124386
0.000104513
7.98239e-05
4.96336e-05
1.3125e-05
-3.03577e-05
-8.15017e-05
-0.00014079
-0.000207718
-0.000281005
-0.00035988
-0.000452147
-0.000549996
-0.000635195
-0.000707682
-0.000735457
-0.000752924
-0.000764917
-0.000769592
-0.000766719
-0.000745999
-0.00067231
-0.000581571
-0.000498397
-0.000422895
-0.00037073
-0.000352263
-0.000370068
-0.000417381
-0.000478933
-0.000534328
-0.000557202
-0.000494574
-0.000413966
-0.000380267
-0.000208127
1.24295e-05
1.9646e-05
-1.53206e-05
-2.57445e-06
-3.39245e-08
-1.01782e-11
0.000175267
0.00017258
0.000167339
0.000159355
0.000148027
0.000132863
0.000113281
8.852e-05
5.77357e-05
2.00073e-05
-2.58117e-05
-8.06516e-05
-0.000145115
-0.000218539
-0.000298716
-0.00038546
-0.00049528
-0.000596152
-0.00068354
-0.00071243
-0.000726613
-0.000733218
-0.000734919
-0.000728837
-0.000710308
-0.000676635
-0.000636755
-0.000585687
-0.000491489
-0.00041048
-0.000364519
-0.000349713
-0.000370725
-0.000422697
-0.00049127
-0.00055584
-0.000595322
-0.000588252
-0.000493477
-0.000373342
-0.000337844
-0.000222731
-1.93854e-06
2.6597e-05
-1.42196e-05
-2.74892e-06
-3.42438e-08
8.95502e-12
0.000172374
0.000168984
0.000162385
0.000152374
0.000138212
0.000119308
9.49419e-05
6.41334e-05
2.57834e-05
-2.13306e-05
-7.88047e-05
-0.000147486
-0.000226421
-0.000312858
-0.000414681
-0.000532213
-0.000634703
-0.00069027
-0.000704575
-0.000707562
-0.000703457
-0.000701799
-0.000692327
-0.000670041
-0.000631935
-0.000577151
-0.000508893
-0.000456439
-0.000408993
-0.000352331
-0.000335089
-0.000364513
-0.000422886
-0.000498793
-0.000573663
-0.000626006
-0.000638419
-0.000598069
-0.000477937
-0.00032743
-0.000297362
-0.000240179
-1.52909e-05
3.47461e-05
-1.27337e-05
-2.89077e-06
-3.42919e-08
2.9471e-11
0.000164454
0.000160196
0.000151934
0.000139447
0.000121811
9.83099e-05
6.80482e-05
2.97598e-05
-1.79939e-05
-7.68393e-05
-0.000148512
-0.000232018
-0.000323917
-0.000438432
-0.000559807
-0.000663502
-0.000681402
-0.000684528
-0.000675155
-0.000671124
-0.000663516
-0.000645589
-0.000612754
-0.000566083
-0.000507887
-0.000445641
-0.00038745
-0.000337285
-0.000323292
-0.000332378
-0.000352331
-0.000410466
-0.000498385
-0.000584938
-0.000650985
-0.000678996
-0.000658637
-0.000587324
-0.000451567
-0.000280408
-0.000260637
-0.000259005
-2.72322e-05
4.35801e-05
-1.10106e-05
-3.00952e-06
-3.43452e-08
5.02976e-11
0.000150857
0.000145528
0.00013522
0.000119699
9.77936e-05
6.863e-05
3.10942e-05
-1.64803e-05
-7.59776e-05
-0.000149081
-0.000235756
-0.000332064
-0.000457711
-0.000580741
-0.000657754
-0.000664965
-0.000651917
-0.000638899
-0.000628144
-0.000609155
-0.000580117
-0.000541647
-0.000488654
-0.000424172
-0.000355724
-0.000295589
-0.000258174
-0.000247764
-0.000263898
-0.000323268
-0.000408994
-0.000491494
-0.000581552
-0.000666042
-0.000712012
-0.000708699
-0.000655203
-0.000559061
-0.000417779
-0.000234893
-0.000228654
-0.000278634
-3.78949e-05
5.27387e-05
-9.11285e-06
-3.10676e-06
-3.44422e-08
7.09609e-11
0.000130833
0.000124185
0.000111358
9.21125e-05
6.49531e-05
2.87966e-05
-1.77722e-05
-7.68921e-05
-0.000150512
-0.000238504
-0.000337681
-0.000472456
-0.000595999
-0.000645975
-0.000639674
-0.000612106
-0.000594245
-0.000570336
-0.00053988
-0.000504687
-0.000459178
-0.000401755
-0.000331883
-0.000257682
-0.000192037
-0.000150195
-0.000144425
-0.000179797
-0.000247733
-0.000337233
-0.00045636
-0.000585686
-0.000672329
-0.000727912
-0.000748391
-0.000713225
-0.00063077
-0.000517601
-0.000378782
-0.000192171
-0.000200244
-0.000296966
-4.71291e-05
6.2076e-05
-7.11252e-06
-3.1989e-06
-3.51524e-08
9.01656e-11
0.000103496
9.52201e-05
7.92925e-05
5.54698e-05
2.18064e-05
-2.30792e-05
-8.0853e-05
-0.000153576
-0.000241405
-0.000342041
-0.000483397
-0.000606279
-0.000629797
-0.000605995
-0.0005704
-0.000540119
-0.000502461
-0.000461525
-0.000418292
-0.000368049
-0.000306063
-0.000233185
-0.000154754
-8.3786e-05
-3.63224e-05
-2.70476e-05
-6.38912e-05
-0.000144369
-0.00025807
-0.000387358
-0.00050878
-0.000636572
-0.000745994
-0.000776071
-0.000756197
-0.000694939
-0.000592255
-0.000470851
-0.000338275
-0.000163822
-0.00017099
-0.000283324
-5.27059e-05
6.68049e-05
-5.20932e-06
-3.34483e-06
-3.86216e-08
1.00911e-10
6.77686e-05
5.74708e-05
3.7702e-05
8.19802e-06
-3.36397e-05
-8.9356e-05
-0.000160042
-0.000245967
-0.000348742
-0.000491581
-0.000612842
-0.000611303
-0.000568569
-0.000522318
-0.000475638
-0.000423981
-0.000375071
-0.000324299
-0.000269163
-0.000204988
-0.000130291
-5.04266e-05
2.36282e-05
7.58015e-05
9.02201e-05
5.63259e-05
-2.69919e-05
-0.000150087
-0.000295438
-0.000445459
-0.000577054
-0.000676408
-0.000766442
-0.000795709
-0.000744141
-0.000656104
-0.000543007
-0.000421082
-0.000297349
-0.000137302
-0.000143659
-0.000265093
-5.65568e-05
7.06743e-05
-3.21955e-06
-3.48036e-06
-4.24983e-08
1.10037e-10
2.22223e-05
9.35766e-06
-1.52605e-05
-5.19063e-05
-0.000103867
-0.000171615
-0.000254112
-0.000357644
-0.000498383
-0.000616141
-0.000592371
-0.000530418
-0.000471243
-0.00040745
-0.000341861
-0.000281659
-0.000225002
-0.000165644
-0.000100101
-2.61546e-05
5.29855e-05
0.000127221
0.000181842
0.000200672
0.000171455
9.02666e-05
-3.62221e-05
-0.000191888
-0.000355536
-0.000507667
-0.000631758
-0.000710063
-0.000769302
-0.000787327
-0.000711236
-0.000600817
-0.000484897
-0.000368511
-0.000256205
-0.000110923
-0.000118628
-0.00024906
-5.97851e-05
7.45747e-05
-1.11484e-06
-3.56897e-06
-4.53016e-08
1.20428e-10
-3.52754e-05
-5.13975e-05
-8.21077e-05
-0.000127332
-0.000190001
-0.000267591
-0.000372024
-0.000507032
-0.000610872
-0.000574517
-0.000494328
-0.000420626
-0.000338375
-0.000257989
-0.000185945
-0.000121542
-5.96006e-05
6.13767e-06
7.78782e-05
0.000153812
0.000225812
0.000280288
0.000301778
0.000277255
0.000200702
7.58785e-05
-8.36528e-05
-0.000257497
-0.000423944
-0.000565819
-0.000669819
-0.000728548
-0.00076462
-0.000758933
-0.000660338
-0.000536326
-0.000422348
-0.000315322
-0.000216025
-8.54188e-05
-9.56714e-05
-0.000234591
-6.19338e-05
7.85906e-05
1.04463e-06
-3.60895e-06
-4.68106e-08
1.32198e-10
-0.000107626
-0.000127179
-0.000164489
-0.000217896
-0.000288385
-0.000395414
-0.000520635
-0.000605609
-0.000557871
-0.000462558
-0.000373691
-0.000271908
-0.000175397
-9.08063e-05
-1.79077e-05
4.76535e-05
0.000112191
0.000180412
0.000251489
0.000319037
0.000371207
0.000393441
0.000372747
0.000301787
0.000181882
2.37207e-05
-0.000154599
-0.000331667
-0.000488386
-0.000612451
-0.000692062
-0.0007346
-0.000752631
-0.000713391
-0.000595679
-0.000468168
-0.000359345
-0.000263781
-0.000177918
-6.11367e-05
-7.44564e-05
-0.00022097
-6.25037e-05
8.28112e-05
3.19645e-06
-3.60836e-06
-4.72082e-08
1.44663e-10
-0.00019628
-0.000217119
-0.000258726
-0.000324687
-0.000432041
-0.000543164
-0.000600715
-0.000543071
-0.000437743
-0.000332775
-0.000211266
-9.74777e-05
8.52001e-07
8.30035e-05
0.000152888
0.000216815
0.000280504
0.000345534
0.000407141
0.000455252
0.00047664
0.0004587
0.000393432
0.000280291
0.00012726
-5.03306e-05
-0.000233021
-0.000401524
-0.000541365
-0.000645292
-0.000701509
-0.000732884
-0.000735175
-0.000653303
-0.000521121
-0.000399936
-0.000298498
-0.000215323
-0.00014249
-3.81938e-05
-5.48133e-05
-0.000207975
-6.13901e-05
8.72478e-05
5.28708e-06
-3.57654e-06
-4.67384e-08
1.57206e-10
-0.000299095
-0.000331941
-0.000397052
-0.000486534
-0.000580961
-0.000598038
-0.000532784
-0.000420973
-0.000300334
-0.000159407
-2.76761e-05
8.57171e-05
0.000178389
0.000253527
0.000317613
0.000377184
0.000435532
0.000490294
0.000533217
0.000552555
0.000536447
0.000476614
0.000371178
0.000225809
5.30284e-05
-0.000130185
-0.000305882
-0.000458925
-0.000579806
-0.000663228
-0.00070309
-0.000726321
-0.000707765
-0.000581443
-0.000441222
-0.000333993
-0.000241864
-0.000171145
-0.000110287
-1.68392e-05
-3.68223e-05
-0.00019574
-5.88532e-05
9.18048e-05
7.2661e-06
-3.5235e-06
-4.56573e-08
1.69393e-10
-0.000470279
-0.000504673
-0.000568059
-0.00063064
-0.000604873
-0.000532914
-0.000417858
-0.000281947
-0.000121744
3.0023e-05
0.000160104
0.000264988
0.000346863
0.00041225
0.000468574
0.000520688
0.000568349
0.000605549
0.000622148
0.000607219
0.000552522
0.000455198
0.000318988
0.000153804
-2.61023e-05
-0.000204865
-0.000367851
-0.000504424
-0.000608858
-0.000670842
-0.000707255
-0.000712193
-0.000635301
-0.000496576
-0.000370357
-0.000271839
-0.000191072
-0.000132275
-8.18344e-05
2.56085e-06
-2.07045e-05
-0.00018456
-5.53623e-05
9.63139e-05
9.08419e-06
-3.4603e-06
-4.42666e-08
1.80751e-10
-0.000666672
-0.00066984
-0.00066648
-0.000636629
-0.000556402
-0.000438114
-0.000284154
-0.000103272
7.01458e-05
0.000219709
0.000338999
0.000429633
0.000498032
0.000552463
0.000599355
0.000640506
0.000672085
0.000685802
0.00067181
0.000622112
0.000533156
0.000407073
0.000251439
7.78776e-05
-0.000100031
-0.000269015
-0.000418069
-0.000539598
-0.000627885
-0.00067486
-0.000704362
-0.000683631
-0.000550129
-0.000406881
-0.000302067
-0.000213504
-0.000145032
-9.76154e-05
-5.64e-05
2.03562e-05
-6.24644e-06
-0.000174422
-5.11825e-05
0.000100697
1.07246e-05
-3.39392e-06
-4.27484e-08
1.91211e-10
-0.000771436
-0.000755078
-0.000710952
-0.000621547
-0.000494289
-0.000315871
-0.000111176
8.65884e-05
0.000258562
0.000395665
0.00049777
0.000571526
0.000626
0.000669217
0.000705047
0.000731816
0.000743101
0.00073029
0.000685764
0.00060548
0.000490216
0.000345466
0.000180378
6.16091e-06
-0.00016555
-0.000324134
-0.000461303
-0.000570089
-0.000638685
-0.000684331
-0.000690144
-0.000596257
-0.000452268
-0.000331893
-0.00023792
-0.000161442
-0.000104887
-6.74958e-05
-3.40788e-05
3.64013e-05
6.49973e-06
-0.000165462
-4.67028e-05
0.000104835
1.21722e-05
-3.33138e-06
-4.13057e-08
2.0055e-10
-0.000886365
-0.000840513
-0.00074422
-0.000591559
-0.000384354
-0.000153758
7.17392e-05
0.000269828
0.000428569
0.000546
0.000628228
0.000685366
0.000727065
0.000759325
0.000782688
0.000792626
0.000781797
0.000743065
0.000672018
0.000568262
0.000435449
0.000280448
0.000112182
-5.95478e-05
-0.000224883
-0.000374892
-0.000502248
-0.000594063
-0.000651745
-0.000681305
-0.000634791
-0.000495384
-0.000359923
-0.000260574
-0.000178243
-0.000114542
-6.9228e-05
-4.0778e-05
-1.41012e-05
5.10605e-05
1.79567e-05
-0.000157408
-4.23072e-05
0.000108636
1.3471e-05
-3.2729e-06
-3.99675e-08
2.09073e-10
-0.000977845
-0.000888822
-0.000719875
-0.000492126
-0.000237392
1.7441e-05
0.000245534
0.000430284
0.00056741
0.000662226
0.000725419
0.000768455
0.00079954
0.000821517
0.00083181
0.000824377
0.000792593
0.00073175
0.000640419
0.000520596
0.000377107
0.000216775
4.76663e-05
-0.000121473
-0.00028154
-0.000423828
-0.00053996
-0.000611991
-0.000664889
-0.000663477
-0.000532298
-0.000385537
-0.000281028
-0.000193478
-0.0001244
-7.30359e-05
-3.77765e-05
-1.71152e-05
3.79329e-06
6.44994e-05
2.81515e-05
-0.000150306
-3.78874e-05
0.000112161
1.46049e-05
-3.22123e-06
-3.87907e-08
2.16691e-10
-0.000975044
-0.000852899
-0.000634735
-0.000362717
-8.10039e-05
0.000178359
0.000392856
0.000554114
0.000665987
0.00073943
0.000787397
0.000820421
0.000843727
0.000856766
0.000854827
0.000831781
0.00078263
0.000704965
0.00059926
0.000468487
0.00031755
0.000152864
-1.78876e-05
-0.000185884
-0.00034177
-0.000475535
-0.000570321
-0.000639627
-0.000657756
-0.000559881
-0.000414752
-0.000298746
-0.000207726
-0.000133781
-7.76826e-05
-3.7119e-05
-1.04064e-05
3.66059e-06
1.97328e-05
7.67789e-05
3.71687e-05
-0.000144107
-3.35026e-05
0.000115411
1.55821e-05
-3.17688e-06
-3.77916e-08
2.23428e-10
-0.000908793
-0.000761091
-0.000510331
-0.000216901
6.72469e-05
0.000310733
0.000498644
0.000631372
0.000719216
0.000776216
0.000814952
0.000843052
0.000862026
0.000868479
0.000856743
0.000821467
0.000759253
0.00066913
0.000552374
0.000412177
0.000253483
8.29905e-05
-9.07912e-05
-0.000257954
-0.000407403
-0.000522278
-0.000605989
-0.000646015
-0.0005808
-0.000438487
-0.000312897
-0.000218555
-0.000140788
-8.06864e-05
-3.64706e-05
-5.37862e-06
1.39261e-05
2.22952e-05
3.42259e-05
8.81975e-05
4.52808e-05
-0.000138619
-2.91677e-05
0.00011842
1.64311e-05
-3.1375e-06
-3.68967e-08
2.29513e-10
-0.000769502
-0.000612838
-0.00035722
-7.27376e-05
0.000187718
0.000398129
0.000551969
0.000656663
0.000726167
0.000774519
0.00081141
0.000840267
0.000858919
0.000862008
0.000843688
0.000799482
0.00072699
0.000625919
0.000497957
0.000346806
0.000178357
8.41768e-07
-0.000175396
-0.000338374
-0.000471248
-0.000568593
-0.000629842
-0.000596035
-0.000457747
-0.000323953
-0.000226444
-0.000145124
-8.15001e-05
-3.41383e-05
-2.47968e-07
2.27101e-05
3.56505e-05
3.911e-05
4.74863e-05
9.88536e-05
5.26185e-05
-0.000133737
-2.4925e-05
0.000121212
1.71741e-05
-3.10152e-06
-3.6062e-08
2.35057e-10
-0.000568207
-0.000423791
-0.000195736
4.84797e-05
0.000262725
0.000428781
0.000547322
0.000629763
0.000690167
0.000739455
0.000782458
0.00081785
0.00084026
0.000843031
0.000820379
0.000768398
0.000685298
0.000571456
0.00042957
0.000264941
8.56859e-05
-9.75001e-05
-0.00027193
-0.000420649
-0.000530449
-0.000611334
-0.000606296
-0.000472477
-0.000332091
-0.00023204
-0.0001475
-8.06588e-05
-3.03592e-05
6.08575e-06
3.12954e-05
4.73993e-05
5.49463e-05
5.42116e-05
5.95507e-05
0.000108711
5.92248e-05
-0.000129421
-2.08632e-05
0.000123795
1.78299e-05
-3.06845e-06
-3.52743e-08
2.40165e-10
-0.000330289
-0.000219959
-5.01383e-05
0.00012739
0.0002798
0.000397575
0.000485867
0.000556135
0.00061883
0.000679094
0.000735662
0.000782454
0.000811401
0.000814933
0.000787361
0.000725369
0.000628172
0.000497713
0.000338946
0.000160057
-2.77169e-05
-0.000211303
-0.000373724
-0.000494351
-0.000592377
-0.000612841
-0.000483405
-0.000337697
-0.000235772
-0.000148526
-7.88172e-05
-2.58221e-05
1.31169e-05
4.04956e-05
5.84902e-05
6.88782e-05
7.18942e-05
6.75976e-05
7.03522e-05
0.000117643
6.50719e-05
-0.000125691
-1.71299e-05
0.000126146
1.8409e-05
-3.03967e-06
-3.4582e-08
2.44842e-10
-9.15948e-05
-3.32023e-05
5.56198e-05
0.000149901
0.000234643
0.000308193
0.000376567
0.000447221
0.000523767
0.000603686
0.000679094
0.000739452
0.000774512
0.000776199
0.000739397
0.000662179
0.000545951
0.00039562
0.000219667
2.99806e-05
-0.000159445
-0.000332798
-0.00046257
-0.000574512
-0.000616123
-0.000491578
-0.000342049
-0.00023851
-0.00014909
-7.68506e-05
-2.13437e-05
1.99933e-05
4.96199e-05
6.95524e-05
8.16079e-05
8.72698e-05
8.65028e-05
7.91986e-05
7.97666e-05
0.000125479
7.01048e-05
-0.000122593
-1.39139e-05
0.000128224
1.8918e-05
-3.01787e-06
-3.40773e-08
2.4907e-10
0.000107049
0.000104674
0.000103715
0.000112192
0.000134518
0.000174857
0.00023658
0.000319875
0.00041931
0.000523769
0.000618831
0.000690164
0.000726159
0.0007192
0.00066596
0.000567371
0.000428525
0.000258522
7.01119e-05
-0.000121768
-0.000300341
-0.000437735
-0.000557849
-0.000610842
-0.000498373
-0.000348747
-0.000241413
-0.000150522
-7.59884e-05
-1.80061e-05
2.57698e-05
5.77217e-05
7.98104e-05
9.36957e-05
0.000100912
0.000102693
9.87845e-05
8.89569e-05
8.7686e-05
0.000132064
7.42824e-05
-0.000120168
-1.14149e-05
0.000129978
1.93621e-05
-3.00632e-06
-3.38756e-08
2.52806e-10
0.00023228
0.00017254
9.00972e-05
2.52097e-05
3.53862e-08
2.21422e-05
8.98308e-05
0.000194201
0.000319879
0.000447225
0.000556136
0.000629759
0.000656652
0.00063135
0.000554086
0.000430254
0.000269797
8.65644e-05
-0.000103284
-0.000281944
-0.000420948
-0.000543029
-0.000605571
-0.000507015
-0.000357641
-0.000245974
-0.00015359
-7.69102e-05
-1.64983e-05
2.97436e-05
6.41184e-05
8.85063e-05
0.000104501
0.000113488
0.000116764
0.000115358
0.00010884
9.69e-05
9.40797e-05
0.00013731
7.76168e-05
-0.000118413
-9.79695e-06
0.000131366
1.97492e-05
-3.00769e-06
-3.40749e-08
2.56035e-10
0.000270491
0.00016897
2.90241e-05
-8.4765e-05
-0.000136926
-0.000118398
-3.67616e-05
8.98385e-05
0.00023659
0.000376573
0.000485867
0.000547317
0.000551958
0.000498626
0.000392834
0.000245512
7.17223e-05
-0.000111176
-0.000284134
-0.000417822
-0.000532733
-0.000600668
-0.000520612
-0.000372013
-0.000254112
-0.000160053
-8.08724e-05
-1.7796e-05
3.10711e-05
6.80288e-05
9.4926e-05
0.000113267
0.000124375
0.000129415
0.000129493
0.000125477
0.000116803
0.000103105
9.8977e-05
0.000141199
8.01527e-05
-0.000117294
-9.16016e-06
0.000132367
2.00874e-05
-3.02355e-06
-3.47408e-08
2.58749e-10
0.000233771
0.000114212
-4.95842e-05
-0.00018177
-0.000239829
-0.000214419
-0.00011839
2.21537e-05
0.000174866
0.000308195
0.00039757
0.000428773
0.000398119
0.00031072
0.000178346
1.74367e-05
-0.000153748
-0.000315849
-0.000438084
-0.000532855
-0.000597968
-0.000543142
-0.000395407
-0.000267584
-0.000171622
-8.93702e-05
-2.30962e-05
2.87784e-05
6.86116e-05
9.82927e-05
0.000119293
0.00013285
0.000140073
0.000141955
0.000139454
0.000133313
0.000122868
0.000107719
0.000102485
0.000143796
8.19753e-05
-0.000116736
-9.50811e-06
0.000132985
2.03851e-05
-3.05367e-06
-3.58793e-08
2.60968e-10
0.000155329
4.26674e-05
-0.000110405
-0.000230997
-0.000276865
-0.000239822
-0.000136914
4.64268e-08
0.000134524
0.000234642
0.000279794
0.000262715
0.000187705
6.72349e-05
-8.10119e-05
-0.000237387
-0.000384322
-0.000494253
-0.000556349
-0.000604811
-0.000580949
-0.000432044
-0.000288382
-0.000190006
-0.000103876
-3.36496e-05
2.17964e-05
6.49427e-05
9.77818e-05
0.000121799
0.000138199
0.000148015
0.000152187
0.000151574
0.000147018
0.000139167
0.000127284
0.000110947
0.000104777
0.000145252
8.31904e-05
-0.000116635
-1.07204e-05
0.000133258
2.06486e-05
-3.09563e-06
-3.74205e-08
2.62726e-10
7.53078e-05
-1.14428e-05
-0.000126665
-0.00021132
-0.00023099
-0.000181757
-8.47501e-05
2.52209e-05
0.000112197
0.000149901
0.000127383
4.84662e-05
-7.27513e-05
-0.000216904
-0.000362709
-0.000492106
-0.000591522
-0.000621521
-0.000636594
-0.000630592
-0.000486545
-0.000324711
-0.000217904
-0.000127341
-5.1912e-05
8.1943e-06
5.54646e-05
9.21042e-05
0.000119687
0.000139434
0.000152361
0.000159344
0.000161193
0.000158666
0.00015252
0.000143332
0.000130313
0.00011303
0.000106084
0.000145803
8.39233e-05
-0.000116862
-1.25447e-05
0.000133264
2.08811e-05
-3.14471e-06
-3.92088e-08
2.64076e-10
2.17455e-05
-3.01549e-05
-9.31117e-05
-0.000126659
-0.000110394
-4.95695e-05
2.90383e-05
9.01063e-05
0.000103718
5.56207e-05
-5.01372e-05
-0.000195734
-0.00035721
-0.000510314
-0.000634721
-0.000719864
-0.000744211
-0.00071094
-0.000666474
-0.000568083
-0.000397083
-0.000258747
-0.000164506
-8.212e-05
-1.52677e-05
3.76983e-05
7.92898e-05
0.000111354
0.000135214
0.000151926
0.000162376
0.00016733
0.000167509
0.000163596
0.000156288
0.00014611
0.000132238
0.000114239
0.000106685
0.000145762
8.4308e-05
-0.000117269
-1.4591e-05
0.000133115
2.1079e-05
-3.19402e-06
-4.10046e-08
2.65087e-10
1.16681e-06
-1.79345e-05
-3.01504e-05
-1.14335e-05
4.26796e-05
0.000114225
0.00016898
0.000172543
0.000104673
-3.32016e-05
-0.000219953
-0.000423777
-0.000612814
-0.000761063
-0.00085288
-0.000888819
-0.000840525
-0.000755091
-0.000669854
-0.000504705
-0.000331973
-0.000217142
-0.0001272
-5.14178e-05
9.3399e-06
5.74584e-05
9.52129e-05
0.000124181
0.000145526
0.000160193
0.000168979
0.000172574
0.000171635
0.000166791
0.000158698
0.000147845
0.000133385
0.000114887
0.0001069
0.000145485
8.44772e-05
-0.0001177
-1.63888e-05
0.000132943
2.12347e-05
-3.23501e-06
-4.25022e-08
2.65812e-10
-3.01812e-07
1.16955e-06
2.17523e-05
7.53181e-05
0.000155341
0.000233781
0.000270498
0.000232282
0.000107048
-9.15917e-05
-0.000330284
-0.000568203
-0.000769489
-0.000908778
-0.000975042
-0.000977853
-0.000886374
-0.000771448
-0.000666692
-0.000470305
-0.000299117
-0.000196297
-0.000107646
-3.53007e-05
2.21968e-05
6.77485e-05
0.000103482
0.000130822
0.000150849
0.000164449
0.000172372
0.000175266
0.00017375
0.000168423
0.000159916
0.00014872
0.000134006
0.000115232
0.000106643
0.000144722
8.49988e-05
-0.00011662
-1.73296e-05
0.000132091
2.11859e-05
-3.23797e-06
-4.26829e-08
2.6478e-10
)
;

boundaryField
{
    inlet
    {
        type            cyclic;
    }
    outlet
    {
        type            cyclic;
    }
    walls
    {
        type            calculated;
        value           nonuniform List<scalar> 
96
(
1.68117e-16
-4.49298e-15
3.63763e-15
1.30898e-13
6.03377e-13
1.62718e-12
2.69587e-12
1.80838e-12
-2.74608e-12
-9.21541e-12
-1.40823e-11
-1.49357e-11
-1.06149e-11