/*--------------------------------*- C++ -*----------------------------------*\
| =========                 |                                                 |
| \\      /  F ield         | OpenFOAM: The Open Source CFD Toolbox           |
|  \\    /   O peration     | Version:  2412                                  |
|   \\  /    A nd           | Website:  www.openfoam.com                      |
|    \\/     M anipulation  |                                                 |
\*---------------------------------------------------------------------------*/
FoamFile
{
    version     2.0;
    format      ascii;
    arch        "LSB;label=32;scalar=64";
    class       volScalarField;
    location    "2130";
    object      I4;
}
// * * * * * * * * * * * * * * * * * * * * * * * * * * * * * * * * * * * * * //

dimensions      [0 0 0 0 0 0 0];

internalField   nonuniform List<scalar> 
2304
(
-8.82753e-11
-8.86038e-11
-8.83625e-11
-8.80258e-11
-8.75764e-11
-8.69909e-11
-8.62511e-11
-8.53462e-11
-8.42692e-11
-8.30231e-11
-8.16128e-11
-8.00528e-11
-7.83496e-11
-7.65001e-11
-7.4472e-11
-7.22267e-11
-6.96881e-11
-6.68484e-11
-6.37371e-11
-6.02523e-11
-5.64683e-11
-5.24084e-11
-4.82293e-11
-4.40752e-11
-4.01524e-11
-3.66879e-11
-3.36445e-11
-3.00582e-11
-2.3655e-11
-1.6766e-11
-9.8229e-12
-2.98336e-12
3.39514e-12
8.68318e-12
1.20987e-11
1.29445e-11
1.09254e-11
6.4945e-12
1.03518e-12
-3.52974e-12
-5.38847e-12
-4.42763e-12
-2.43834e-12
-9.50645e-13
-2.51792e-13
-3.58811e-14
-9.64355e-16
-6.78302e-17
1.42272e-08
1.41677e-08
1.3668e-08
1.30689e-08
1.24723e-08
1.19584e-08
1.15792e-08
1.13578e-08
1.12923e-08
1.13607e-08
1.15301e-08
1.17619e-08
1.20252e-08
1.23038e-08
1.26018e-08
1.29339e-08
1.33248e-08
1.37691e-08
1.42479e-08
1.47517e-08
1.52132e-08
1.55716e-08
1.5727e-08
1.55939e-08
1.50911e-08
1.41575e-08
1.28668e-08
1.17129e-08
1.14777e-08
1.14467e-08
1.14299e-08
1.14147e-08
1.13089e-08
1.09258e-08
1.00343e-08
8.44802e-09
6.14183e-09
3.35554e-09
6.09259e-10
-1.45171e-09
-2.27393e-09
-1.91367e-09
-1.09974e-09
-4.61556e-10
-1.41152e-10
-2.7612e-11
-1.68386e-12
-9.65477e-16
1.07933e-06
1.07832e-06
1.06465e-06
1.04819e-06
1.03182e-06
1.01783e-06
1.0078e-06
1.00253e-06
1.0021e-06
1.00598e-06
1.01329e-06
1.02291e-06
1.03396e-06
1.04597e-06
1.05908e-06
1.07384e-06
1.09102e-06
1.11045e-06
1.13123e-06
1.15328e-06
1.17428e-06
1.19189e-06
1.20245e-06
1.20262e-06
1.18929e-06
1.15978e-06
1.11465e-06
1.06609e-06
1.03542e-06
1.00305e-06
9.6351e-07
9.1626e-07
8.58132e-07
7.83382e-07
6.85687e-07
5.61319e-07
4.12974e-07
2.5291e-07
1.02462e-07
-1.47673e-08
-7.59757e-08
-7.80497e-08
-5.01633e-08
-2.31313e-08
-7.4195e-09
-1.12277e-09
-2.76182e-11
-3.59037e-14
-7.0618e-06
-7.07813e-06
-7.02628e-06
-6.96033e-06
-6.88298e-06
-6.79512e-06
-6.69595e-06
-6.58326e-06
-6.45419e-06
-6.30603e-06
-6.13627e-06
-5.94313e-06
-5.72445e-06
-5.47657e-06
-5.19356e-06
-4.86782e-06
-4.48992e-06
-4.05711e-06
-3.5747e-06
-3.02812e-06
-2.4223e-06
-1.76291e-06
-1.06627e-06
-3.49127e-07
3.70617e-07
1.07222e-06
1.73562e-06
2.37029e-06
3.03728e-06
3.67005e-06
4.24458e-06
4.74004e-06
5.10712e-06
5.27561e-06
5.17192e-06
4.74314e-06
3.98096e-06
2.93774e-06
1.72619e-06
4.75712e-07
-5.01019e-07
-8.44164e-07
-6.55562e-07
-3.16474e-07
-8.24623e-08
-7.4201e-09
-1.41181e-10
-2.51878e-13
-4.4025e-05
-4.43091e-05
-4.43668e-05
-4.44166e-05
-4.44147e-05
-4.43239e-05
-4.4118e-05
-4.37842e-05
-4.33207e-05
-4.27357e-05
-4.20427e-05
-4.12585e-05
-4.03974e-05
-3.94667e-05
-3.8464e-05
-3.73816e-05
-3.62076e-05
-3.49419e-05
-3.35638e-05
-3.21045e-05
-3.06029e-05
-2.90854e-05
-2.76075e-05
-2.62011e-05
-2.48624e-05
-2.35619e-05
-2.22712e-05
-2.06924e-05
-1.75792e-05
-1.45255e-05
-1.15801e-05
-8.86306e-06
-6.54557e-06
-4.7721e-06
-3.57139e-06
-2.78901e-06
-2.10882e-06
-1.23246e-06
-2.28217e-07
-4.15388e-07
-2.46467e-06
-3.9773e-06
-3.33036e-06
-1.5291e-06
-3.16487e-07
-2.31336e-08
-4.61631e-10
-9.50848e-13
5.77687e-06
5.46278e-06
4.86249e-06
4.17967e-06
3.57173e-06
3.16701e-06
3.05174e-06
3.26516e-06
3.80614e-06
4.64069e-06
5.71441e-06
6.96056e-06
8.31566e-06
9.72947e-06
1.11739e-05
1.26336e-05
1.41047e-05
1.55669e-05
1.70567e-05
1.84459e-05
1.96059e-05
2.04481e-05
2.08175e-05
2.06267e-05
1.99109e-05
1.88364e-05
1.75554e-05
1.56991e-05
1.26249e-05
9.07414e-06
5.09696e-06
6.48838e-07
-4.13843e-06
-8.88136e-06
-1.29599e-05
-1.56474e-05
-1.63565e-05
-1.48337e-05
-1.06928e-05
-6.96702e-06
-8.14622e-06
-1.07783e-05
-8.12498e-06
-3.33047e-06
-6.55606e-07
-5.01684e-08
-1.09989e-09
-2.43872e-12
3.88722e-05
3.92316e-05
3.90875e-05
3.89513e-05
3.88753e-05
3.89089e-05
3.90945e-05
3.94676e-05
4.00529e-05
4.08623e-05
4.18962e-05
4.31406e-05
4.458e-05
4.62077e-05
4.80368e-05
5.01028e-05
5.24687e-05
5.51511e-05
5.81353e-05
6.15113e-05
6.52343e-05
6.93086e-05
7.36367e-05
7.81739e-05
8.29945e-05
8.83371e-05
9.44124e-05
9.89513e-05
9.28489e-05
8.63141e-05
8.00465e-05
7.42367e-05
6.93733e-05
6.61017e-05
6.48768e-05
6.55674e-05
6.71486e-05
6.75233e-05
6.60499e-05
5.50704e-05
1.81807e-05
-8.88777e-06
-1.07787e-05
-3.97764e-06
-8.44254e-07
-7.80588e-08
-1.91392e-09
-4.42824e-12
-2.83324e-05
-2.81591e-05
-2.81029e-05
-2.79755e-05
-2.77317e-05
-2.73264e-05
-2.67195e-05
-2.58741e-05
-2.47622e-05
-2.33684e-05
-2.16894e-05
-1.97392e-05
-1.75361e-05
-1.50892e-05
-1.23851e-05
-9.37932e-06
-5.98211e-06
-2.1648e-06
2.08227e-06
6.89898e-06
1.22687e-05
1.82623e-05
2.48075e-05
3.18776e-05
3.95291e-05
4.78728e-05
5.69843e-05
6.67369e-05
7.62086e-05
8.68716e-05
9.91145e-05
0.000112609
0.00012675
0.000140562
0.00015268
0.000161687
0.000166778
0.000167649
0.000169151
0.000184324
0.00011738
1.8179e-05
-8.14754e-06
-2.46533e-06
-5.01175e-07
-7.59902e-08
-2.2743e-09
-5.38937e-12
-4.82386e-05
-4.84936e-05
-4.85862e-05
-4.86009e-05
-4.84173e-05
-4.79319e-05
-4.70664e-05
-4.57697e-05
-4.40199e-05
-4.18238e-05
-3.92102e-05
-3.62311e-05
-3.29439e-05
-2.93918e-05
-2.5586e-05
-2.14943e-05
-1.70167e-05
-1.21334e-05
-6.78819e-06
-8.61047e-07
5.60104e-06
1.27138e-05
2.03579e-05
2.845e-05
3.69508e-05
4.57444e-05
5.45872e-05
6.40454e-05
7.82908e-05
9.34669e-05
0.000109145
0.000124452
0.000137995
0.000148159
0.000153644
0.000154263
0.000151627
0.000148138
0.000142672
0.00017646
0.000184321
5.50661e-05
-6.96959e-06
-4.16415e-07
4.75469e-07
-1.47894e-08
-1.45225e-09
-3.53102e-12
-3.55473e-05
-3.56339e-05
-3.55628e-05
-3.53632e-05
-3.49277e-05
-3.41638e-05
-3.29947e-05
-3.1362e-05
-2.92299e-05
-2.65887e-05
-2.34487e-05
-1.98464e-05
-1.58227e-05
-1.14019e-05
-6.57074e-06
-1.25856e-06
4.70464e-06
1.13614e-05
1.87988e-05
2.7272e-05
3.67518e-05
4.74795e-05
5.92845e-05
7.19842e-05
8.53762e-05
9.90905e-05
0.000112735
0.000126243
0.000139247
0.000150516
0.000159312
0.000164497
0.000164867
0.000159792
0.000149926
0.000137721
0.000127321
0.000122374
0.000120386
0.000142671
0.000169147
6.60437e-05
-1.06965e-05
-2.29625e-07
1.72585e-06
1.02431e-07
6.08503e-10
1.03342e-12
-3.84107e-05
-3.82968e-05
-3.80809e-05
-3.76785e-05
-3.69847e-05
-3.5909e-05
-3.43711e-05
-3.23027e-05
-2.96544e-05
-2.64002e-05
-2.25312e-05
-1.80673e-05
-1.30307e-05
-7.42444e-06
-1.21291e-06
5.71116e-06
1.35972e-05
2.25006e-05
3.25374e-05
4.40849e-05
5.70373e-05
7.17554e-05
8.79033e-05
0.000105081
0.000122808
0.000140331
0.000156925
0.000172514
0.00018634
0.000195766
0.000199352
0.000196084
0.000185736
0.000169463
0.000150174
0.000132406
0.000121492
0.000120347
0.000122373
0.000148135
0.000167644
6.75157e-05
-1.48384e-05
-1.2342e-06
2.93731e-06
2.52869e-07
3.35454e-09
6.49227e-12
-4.46686e-05
-4.44627e-05
-4.40807e-05
-4.34396e-05
-4.24308e-05
-4.09591e-05
-3.89371e-05
-3.62828e-05
-3.29308e-05
-2.88357e-05
-2.39641e-05
-1.83126e-05
-1.18777e-05
-4.63439e-06
3.47615e-06
1.25977e-05
2.30796e-05
3.49626e-05
4.83409e-05
6.3681e-05
8.06083e-05
9.94784e-05
0.000119757
0.000140756
0.000161604
0.000180971
0.000197392
0.000210237
0.000218388
0.000219538
0.000212803
0.000198441
0.000178111
0.000155021
0.000133637
0.000118813
0.000114615
0.00012149
0.000127318
0.000151623
0.000166772
6.71402e-05
-1.63617e-05
-2.11081e-06
3.98045e-06
4.12923e-07
6.14063e-09
1.09227e-11
-4.95735e-05
-4.92831e-05
-4.87049e-05
-4.77797e-05
-4.63923e-05
-4.44411e-05
-4.18284e-05
-3.84555e-05
-3.42345e-05
-2.90923e-05
-2.29596e-05
-1.57974e-05
-7.56462e-06
1.80035e-06
1.23797e-05
2.43491e-05
3.81817e-05
5.38107e-05
7.11612e-05
9.06e-05
0.000111317
0.000133295
0.000156037
0.000178757
0.000200253
0.000218678
0.000231624
0.000237725
0.000236223
0.000226327
0.000208667
0.000185281
0.000159646
0.000136253
0.000119733
0.000113498
0.000118811
0.000132403
0.000137718
0.000154258
0.00016168
6.55589e-05
-1.56528e-05
-2.79114e-06
4.74258e-06
5.61263e-07
8.44668e-09
1.29415e-11
-5.33057e-05
-5.29009e-05
-5.20979e-05
-5.08426e-05
-4.90094e-05
-4.64883e-05
-4.31672e-05
-3.89244e-05
-3.36412e-05
-2.72059e-05
-1.94978e-05
-1.04301e-05
8.72414e-08
1.21635e-05
2.58992e-05
4.14673e-05
5.94113e-05
7.92979e-05
0.000100678
0.000123437
0.000147055
0.000173658
0.000198518
0.000220075
0.000237047
0.000248017
0.000252057
0.000249454
0.000237331
0.000216993
0.000191222
0.000163758
0.000139129
0.000121816
0.000115058
0.000119732
0.000133634
0.00015017
0.000149921
0.000153639
0.000152673
6.48692e-05
-1.29649e-05
-3.57356e-06
5.17136e-06
6.85633e-07
1.00329e-08
1.20956e-11
-5.61412e-05
-5.55986e-05
-5.45344e-05
-5.28915e-05
-5.05281e-05
-4.7322e-05
-4.31415e-05
-3.78328e-05
-3.12362e-05
-2.31883e-05
-1.35005e-05
-2.02784e-06
1.13825e-05
2.68999e-05
4.45957e-05
6.4489e-05
8.68497e-05
0.000110616
0.000135605
0.000165475
0.000193772
0.000217745
0.000237782
0.000252969
0.00026244
0.000265227
0.000258673
0.00024264
0.000222014
0.000194981
0.000166267
0.000140901
0.000123357
0.000116756
0.000121815
0.000136251
0.000155018
0.00016946
0.000159788
0.000148154
0.000140555
6.60958e-05
-8.88544e-06
-4.77418e-06
5.2751e-06
7.83336e-07
1.09246e-08
8.68022e-12
-5.79169e-05
-5.72134e-05
-5.58393e-05
-5.37345e-05
-5.07328e-05
-4.66947e-05
-4.14619e-05
-3.48375e-05
-2.6608e-05
-1.65446e-05
-4.37503e-06
1.01192e-05
2.71672e-05
4.693e-05
6.92394e-05
9.36674e-05
0.000119956
0.000150712
0.000183335
0.00021174
0.000235911
0.00024516
0.000250976
0.000254971
0.000256529
0.000255574
0.000248667
0.000224103
0.000193858
0.000166133
0.000140965
0.000123577
0.000117421
0.000123356
0.000139127
0.000159645
0.000178109
0.000185734
0.000164864
0.000137991
0.000126745
6.93693e-05
-4.14132e-06
-6.54733e-06
5.10671e-06
8.58106e-07
1.13082e-08
3.39277e-12
-5.84222e-05
-5.75267e-05
-5.57798e-05
-5.31184e-05
-4.93423e-05
-4.42876e-05
-3.77602e-05
-2.95067e-05
-1.92453e-05
-6.66912e-06
8.60385e-06
2.68838e-05
4.83717e-05
7.2846e-05
9.95699e-05
0.000128479
0.000165094
0.000198725
0.000227867
0.000237483
0.000242201
0.000244399
0.000244964
0.000242938
0.000236762
0.00022554
0.000212251
0.000195227
0.000163829
0.000136828
0.000121507
0.000116571
0.000123575
0.000140899
0.000163757
0.00018528
0.000198441
0.000196084
0.000164497
0.00012445
0.000112606
7.42352e-05
6.47672e-07
-8.86436e-06
4.73978e-06
9.1626e-07
1.14146e-08
-2.98495e-12
-5.74581e-05
-5.6328e-05
-5.41284e-05
-5.07912e-05
-4.60706e-05
-3.97694e-05
-3.16473e-05
-2.13778e-05
-8.5945e-06
7.11017e-06
2.62682e-05
4.91621e-05
7.54734e-05
0.000104282
0.000138222
0.000177408
0.000211585
0.000230104
0.000234856
0.000235846
0.000234473
0.000233925
0.000230773
0.000223347
0.000210646
0.000192383
0.000169629
0.000152146
0.000136328
0.000117444
0.000111698
0.000121505
0.000140962
0.000166264
0.000191221
0.000208669
0.000212806
0.000199356
0.000159316
0.000109146
9.91139e-05
8.00484e-05
5.09811e-06
-1.15808e-05
4.2445e-06
9.63545e-07
1.14306e-08
-9.8236e-12
-5.4818e-05
-5.33988e-05
-5.06447e-05
-4.64823e-05
-4.06038e-05
-3.277e-05
-2.26827e-05
-9.91996e-06
5.99795e-06
2.56131e-05
4.95042e-05
7.73387e-05
0.000107966
0.000146141
0.000186611
0.000221197
0.000227138
0.00022817
0.000225037
0.000223701
0.000221171
0.000215199
0.000204253
0.000188695
0.000169297
0.000148548
0.00012915
0.000112429
0.000107763
0.00011079
0.000117444
0.000136823
0.000166129
0.000194979
0.000216995
0.000226332
0.000219546
0.000195774
0.000150525
9.34719e-05
8.68743e-05
8.63204e-05
9.07825e-06
-1.45254e-05
3.67017e-06
1.00313e-06
1.14484e-08
-1.67658e-11
-5.02856e-05
-4.85095e-05
-4.50734e-05
-3.98995e-05
-3.25979e-05
-2.28767e-05
-1.03648e-05
5.49342e-06
2.53259e-05
4.96939e-05
7.85847e-05
0.000110679
0.000152569
0.000193597
0.000219273
0.000221653
0.000217293
0.000212956
0.00020938
0.000203053
0.000193373
0.000180549
0.000162885
0.000141391
0.000118575
9.85295e-05
8.60581e-05
8.25882e-05
8.79673e-05
0.000107755
0.000136329
0.000163831
0.000193852
0.000222014
0.000237337
0.000236233
0.000218401
0.000186353
0.000139261
7.83e-05
7.6215e-05
9.28598e-05
1.26322e-05
-1.75782e-05
3.03761e-06
1.03554e-06
1.14807e-08
-2.36536e-11
-4.36109e-05
-4.13949e-05
-3.71194e-05
-3.07042e-05
-2.16511e-05
-9.59888e-06
5.92406e-06
2.56308e-05
5.0171e-05
7.95002e-05
0.000112549
0.000157486
0.000198692
0.000215342
0.000213219
0.000204018
0.000198076
0.000190112
0.00017996
0.000168229
0.000153059
0.000133918
0.000110628
8.5894e-05
6.40121e-05
5.00649e-05
4.81417e-05
5.99323e-05
8.25777e-05
0.000112412
0.00015212
0.000195227
0.000224109
0.000242638
0.000249464
0.000237742
0.000210257
0.000172533
0.000126261
6.40587e-05
6.67467e-05
9.89669e-05
1.571e-05
-2.06906e-05
2.37085e-06
1.06626e-06
1.17174e-08
-3.00551e-11
-3.44988e-05
-3.174e-05
-2.64308e-05
-1.84899e-05
-7.2688e-06
7.69308e-06
2.69511e-05
5.11921e-05
8.04668e-05
0.000114001
0.000161135
0.000202127
0.000209943
0.000201988
0.00019012
0.000180039
0.000167487
0.000153841
0.00013943
0.000122683
0.000102021
7.77283e-05
5.15845e-05
2.79285e-05
1.21074e-05
9.01581e-06
2.12971e-05
4.81229e-05
8.60233e-05
0.000129119
0.000169591
0.00021219
0.000248665
0.000258691
0.000252066
0.000231647
0.000197418
0.00015695
0.000112758
5.4608e-05
5.6996e-05
9.4422e-05
1.75687e-05
-2.22669e-05
1.73645e-06
1.1149e-06
1.28738e-08
-3.36371e-11
-2.25895e-05
-1.91569e-05
-1.25673e-05
-2.73268e-06
1.12133e-05
2.97854e-05
5.33473e-05
8.1987e-05
0.000116236
0.000163865
0.000204321
0.000203774
0.000189508
0.000174096
0.000158545
0.000141326
0.000125023
0.000108099
8.97207e-05
6.83294e-05
4.34304e-05
1.68088e-05
-7.87614e-06
-2.52672e-05
-3.00734e-05
-1.87753e-05
8.99727e-06
5.00288e-05
9.84791e-05
0.000148487
0.00019235
0.000225464
0.000255482
0.000265238
0.000248047
0.000218701
0.000181002
0.000140361
9.91164e-05
4.57676e-05
4.78862e-05
8.83481e-05
1.88522e-05
-2.35566e-05
1.0732e-06
1.16008e-06
1.4166e-08
-3.66788e-11
-7.40745e-06
-3.11922e-06
5.08683e-06
1.73021e-05
3.46225e-05
5.72048e-05
8.47014e-05
0.000119206
0.000166134
0.000205423
0.000197458
0.000176788
0.000157074
0.000135816
0.000113952
9.38852e-05
7.50004e-05
5.52146e-05
3.3367e-05
8.71822e-06
-1.76618e-05
-4.2407e-05
-6.06139e-05
-6.68907e-05
-5.71518e-05
-3.00889e-05
1.20739e-05
6.39624e-05
0.000118512
0.000169223
0.000210587
0.000236681
0.000256433
0.000262447
0.000237079
0.000200271
0.000161632
0.000122837
8.54017e-05
3.6974e-05
3.95427e-05
8.30062e-05
1.99281e-05
-2.48565e-05
3.71631e-07
1.18962e-06
1.51005e-08
-4.01426e-11
1.17585e-05
1.71325e-05
2.73693e-05
4.24439e-05
6.33335e-05
8.91937e-05
0.000124001
0.000169018
0.00020366
0.000191504
0.000164757
0.000140204
0.000112791
8.59954e-05
6.1981e-05
4.05136e-05
1.98668e-05
-2.0459e-06
-2.59594e-05
-5.12705e-05
-7.52705e-05
-9.34292e-05
-0.000100593
-9.24183e-05
-6.69006e-05
-2.52929e-05
2.78841e-05
8.58321e-05
0.000141315
0.000188607
0.000223273
0.000242841
0.000254872
0.000252985
0.000220113
0.000178774
0.000140783
0.000105108
7.20082e-05
2.84721e-05
3.18905e-05
7.81853e-05
2.06443e-05
-2.6195e-05
-3.48186e-07
1.20294e-06
1.56034e-08
-4.40658e-11
3.58754e-05
4.2393e-05
5.48298e-05
7.26315e-05
9.61251e-05
0.000131801
0.000173554
0.000201897
0.000185954
0.000154168
0.000124561
9.06352e-05
5.84649e-05
3.02683e-05
5.96907e-06
-1.58846e-05
-3.7397e-05
-6.01375e-05
-8.38298e-05
-0.000106346
-0.000123736
-0.000131147
-0.000124249
-0.000100596
-6.06275e-05
-7.90697e-06
5.15329e-05
0.000110555
0.000162795
0.000204152
0.000230684
0.000244858
0.000250878
0.000237805
0.000198559
0.000156054
0.000119782
8.79273e-05
5.93058e-05
2.03778e-05
2.48188e-05
7.36468e-05
2.08342e-05
-2.76017e-05
-1.06546e-06
1.20275e-06
1.5736e-08
-4.82209e-11
6.5427e-05
7.23733e-05
8.62424e-05
0.000108228
0.000144013
0.000181063
0.000200255
0.00018102
0.000145901
0.000110924
7.04215e-05
3.2492e-05
-2.84234e-07
-2.76679e-05
-5.09628e-05
-7.22717e-05
-9.35015e-05
-0.000115178
-0.000135714
-0.000151751
-0.00015888
-0.0001529
-0.000131144
-9.34305e-05
-4.242e-05
1.67768e-05
7.76736e-05
0.000133842
0.000180456
0.0002151
0.000233829
0.000244287
0.000245066
0.000217773
0.000173705
0.000133311
9.94994e-05
7.17748e-05
4.74966e-05
1.27301e-05
1.82711e-05
6.93165e-05
2.04629e-05
-2.90804e-05
-1.76233e-06
1.19214e-06
1.55794e-08
-5.24018e-11
9.97021e-05
0.000110649
0.000132351
0.000162178
0.000193657
0.000199352
0.000177591
0.000140316
0.000100111
5.31352e-05
9.22511e-06
-2.85724e-05
-5.94628e-05
-8.45091e-05
-0.000105871
-0.000125728
-0.000145178
-0.000163432
-0.000177739
-0.000184185
-0.000178816
-0.000158871
-0.000123726
-7.52695e-05
-1.76761e-05
4.33949e-05
0.000101961
0.000152975
0.000193269
0.000221076
0.000234351
0.000242104
0.000235938
0.000193817
0.00014707
0.00011133
8.06212e-05
5.70486e-05
3.67622e-05
5.61192e-06
1.22741e-05
6.52395e-05
1.96173e-05
-3.05992e-05
-2.422e-06
1.17446e-06
1.5219e-08
-5.64641e-11
0.000156756
0.000168217
0.000189342
0.000210202
0.000201624
0.000177637
0.000139283
9.39823e-05
4.0581e-05
-1.00076e-05
-5.33677e-05
-8.83292e-05
-0.000115621
-0.000137417
-0.000156192
-0.000173563
-0.00018945
-0.00020185
-0.000207383
-0.000202407
-0.000184174
-0.000151733
-0.00010633
-5.12678e-05
8.70078e-06
6.82884e-05
0.000122617
0.000168141
0.000202954
0.000223607
0.000235743
0.000237404
0.000211775
0.000165524
0.000123451
9.06129e-05
6.36906e-05
4.40919e-05
2.7278e-05
-8.54642e-07
6.90147e-06
6.15139e-05
1.84537e-05
-3.2102e-05
-3.02803e-06
1.1534e-06
1.47555e-08
-6.02501e-11
0.000222189
0.000223256
0.000222154
0.000212214
0.000185474
0.00014604
9.47179e-05
3.4424e-05
-2.33816e-05
-7.32361e-05
-0.000112999
-0.000143211
-0.000166011
-0.000184155
-0.000199786
-0.000213503
-0.000224029
-0.000228601
-0.000223937
-0.000207371
-0.000177719
-0.000135691
-8.38129e-05
-2.59592e-05
3.33435e-05
8.96715e-05
0.000139356
0.000179866
0.000209294
0.000224939
0.000234785
0.000227898
0.000183379
0.000135622
0.000100688
7.11677e-05
4.8344e-05
3.25387e-05
1.87999e-05
-6.78624e-06
2.08211e-06
5.81354e-05
1.70605e-05
-3.35628e-05
-3.57481e-06
1.13128e-06
1.42494e-08
-6.3737e-11
0.000257166
0.000251713
0.000237002
0.000207198
0.000164765
0.00010529
3.7059e-05
-2.88623e-05
-8.61869e-05
-0.000131888
-0.000165923
-0.000190509
-0.000208667
-0.000223073
-0.000235017
-0.000243939
-0.000247701
-0.000243431
-0.000228588
-0.000201827
-0.000163406
-0.000115155
-6.0126e-05
-2.05364e-06
5.5183e-05
0.000108044
0.000153767
0.00019003
0.000212885
0.000228104
0.000230062
0.00019876
0.000150753
0.000110629
7.93065e-05
5.3814e-05
3.49624e-05
2.24988e-05
1.13595e-05
-1.21344e-05
-2.16661e-06
5.51494e-05
1.55673e-05
-3.4942e-05
-4.05736e-06
1.11043e-06
1.37685e-08
-6.68499e-11
0.000295487
0.000280192
0.000248077
0.000197181
0.000128117
5.12532e-05
-2.39125e-05
-8.99423e-05
-0.000142856
-0.000182
-0.00020941
-0.000228456
-0.000242356
-0.000253109
-0.000260897
-0.00026421
-0.0002606
-0.000247689
-0.000224007
-0.000189421
-0.00014515
-9.34829e-05
-3.73941e-05
1.98492e-05
7.49606e-05
0.000124963
0.000167416
0.000198016
0.000217235
0.000227106
0.000211615
0.000165128
0.00011997
8.68578e-05
5.94144e-05
3.81805e-05
2.3076e-05
1.35928e-05
4.70032e-06
-1.70205e-05
-5.98559e-06
5.24653e-05
1.41022e-05
-3.62087e-05
-4.49029e-06
1.09094e-06
1.33224e-08
-6.96909e-11
0.000325921
0.000296256
0.000239951
0.000164043
7.91314e-05
-5.81329e-06
-8.18444e-05
-0.000143428
-0.000189137
-0.000220742
-0.000241807
-0.000256153
-0.000266515
-0.00027384
-0.000277271
-0.000274793
-0.000264199
-0.000243918
-0.000213474
-0.000173532
-0.000125703
-7.22585e-05
-1.58888e-05
4.04905e-05
9.38456e-05
0.000141275
0.000179986
0.00020398
0.000221627
0.000221188
0.000177437
0.000128505
9.36752e-05
6.44926e-05
4.14666e-05
2.43452e-05
1.25922e-05
5.70522e-06
-1.26448e-06
-2.14999e-05
-9.38384e-06
5.00985e-05
1.26289e-05
-3.73835e-05
-4.86823e-06
1.07372e-06
1.29302e-08
-7.223e-11
0.000325013
0.0002843
0.000211579
0.000120907
2.70014e-05
-5.9453e-05
-0.000130952
-0.000184705
-0.000221996
-0.000246477
-0.000262467
-0.000273475
-0.000281244
-0.00028559
-0.000284943
-0.000277261
-0.000260878
-0.000234989
-0.000199754
-0.000156163
-0.00010585
-5.09547e-05
5.96236e-06
6.19607e-05
0.000113922
0.00015851
0.000190094
0.000213203
0.000219274
0.000186636
0.000138245
9.95798e-05
6.9242e-05
4.45938e-05
2.58941e-05
1.23729e-05
3.46878e-06
-1.22009e-06
-6.57765e-06
-2.55928e-05
-1.23895e-05
4.80326e-05
1.11674e-05
-3.84665e-05
-5.19398e-06
1.05894e-06
1.25972e-08
-7.44759e-11
0.000302927
0.000253697
0.00017011
7.23005e-05
-2.24158e-05
-0.000103578
-0.000166215
-0.000210457
-0.000239739
-0.00025874
-0.000271652
-0.000281019
-0.000287343
-0.000289494
-0.000285582
-0.000273823
-0.000253085
-0.000223044
-0.000184125
-0.000137393
-8.44944e-05
-2.76635e-05
3.02632e-05
8.59835e-05
0.0001358
0.000174083
0.000201986
0.000215355
0.000193617
0.000146159
0.000104295
7.28513e-05
4.69294e-05
2.68954e-05
1.21568e-05
1.79279e-06
-4.64204e-06
-7.43164e-06
-1.14087e-05
-2.93988e-05
-1.50935e-05
4.62035e-05
9.72243e-06
-3.94694e-05
-5.47695e-06
1.04581e-06
1.22989e-08
-7.6504e-11
0.000256497
0.00020428
0.000119073
2.42452e-05
-6.25729e-05
-0.00013271
-0.000183989
-0.000218888
-0.000242057
-0.000258174
-0.000270471
-0.00028009
-0.000286308
-0.000287337
-0.000281231
-0.000266495
-0.000242331
-0.000208641
-0.000165986
-0.000115602
-5.94522e-05
-2.80823e-07
5.84644e-05
0.00011279
0.000157075
0.000189516
0.000209958
0.000198704
0.000152581
0.000107978
7.5481e-05
4.83749e-05
2.71667e-05
1.13794e-05
8.2592e-08
-7.57008e-06
-1.18835e-05
-1.30366e-05
-1.58288e-05
-3.29506e-05
-1.75394e-05
4.45767e-05
8.3082e-06
-4.03999e-05
-5.72462e-06
1.03382e-06
1.20206e-08
-7.83521e-11
0.000189402
0.000141264
6.52449e-05
-1.61613e-05
-8.75755e-05
-0.000142927
-0.000182441
-0.000209921
-0.000230056
-0.000246486
-0.000260821
-0.000272618
-0.000280088
-0.000281012
-0.000273461
-0.000256134
-0.000228433
-0.000190486
-0.00014319
-8.83136e-05
-2.8562e-05
3.24995e-05
9.06425e-05
0.000140212
0.000176799
0.000203784
0.000202132
0.000157493
0.000110688
7.73459e-05
4.91669e-05
2.68862e-05
1.01197e-05
-2.02863e-06
-1.04319e-05
-1.57998e-05
-1.83154e-05
-1.80705e-05
-1.98502e-05
-3.6236e-05
-1.97415e-05
4.31382e-05
6.95428e-06
-4.12605e-05
-5.9432e-06
1.0228e-06
1.17581e-08
-8.00546e-11
0.000110097
7.33176e-05
1.67103e-05
-4.24664e-05
-9.32684e-05
-0.000132526
-0.000161956
-0.000185378
-0.000206277
-0.000226366
-0.000245222
-0.000260819
-0.000270468
-0.000271646
-0.000262455
-0.000241791
-0.000209391
-0.000165904
-0.000112982
-5.33521e-05
9.2387e-06
7.04337e-05
0.000124572
0.000164764
0.00019746
0.00020432
0.000161138
0.000112554
7.85899e-05
4.95088e-05
2.62724e-05
8.60732e-06
-4.37234e-06
-1.34986e-05
-1.94968e-05
-2.29594e-05
-2.39647e-05
-2.25325e-05
-2.34507e-05
-3.92131e-05
-2.16905e-05
4.18949e-05
5.70985e-06
-4.2044e-05
-6.13622e-06
1.0132e-06
1.15273e-08
-8.16137e-11
3.05313e-05
1.10624e-05
-1.85454e-05
-4.99721e-05
-7.82174e-05
-0.000102732
-0.000125523
-0.000149074
-0.00017459
-0.000201229
-0.000226366
-0.000246485
-0.000258172
-0.000258734
-0.000246467
-0.000220727
-0.000181984
-0.000131873
-7.32221e-05
-9.99347e-06
5.31479e-05
0.000110932
0.000154172
0.000191502
0.000205417
0.000163864
0.000114004
7.95024e-05
4.96971e-05
2.56169e-05
7.11452e-06
-6.66446e-06
-1.654e-05
-2.31842e-05
-2.72027e-05
-2.90899e-05
-2.88343e-05
-2.63996e-05
-2.65888e-05
-4.1825e-05
-2.33681e-05
4.08624e-05
4.63788e-06
-4.27364e-05
-6.30588e-06
1.00594e-06
1.13591e-08
-8.30232e-11
-3.56833e-05
-3.48961e-05
-3.45776e-05
-3.7402e-05
-4.48418e-05
-5.82862e-05
-7.88601e-05
-0.000106625
-0.00013977
-0.00017459
-0.000206278
-0.000230055
-0.000242054
-0.000239734
-0.000221987
-0.000189124
-0.000142841
-8.61735e-05
-2.33703e-05
4.05893e-05
0.000100113
0.000145898
0.000185947
0.00020365
0.00016613
0.000116238
8.04694e-05
5.01742e-05
2.53295e-05
6.00202e-06
-8.58997e-06
-1.92406e-05
-2.66035e-05
-3.12319e-05
-3.36373e-05
-3.42311e-05
-3.29282e-05
-2.96523e-05
-2.92286e-05
-4.40195e-05
-2.47606e-05
4.00541e-05
3.80487e-06
-4.33207e-05
-6.45393e-06
1.00209e-06
1.12918e-08
-8.42685e-11
-7.74253e-05
-5.75146e-05
-3.00354e-05
-8.40502e-06
-1.21547e-08
-7.3806e-06
-2.99435e-05
-6.47337e-05
-0.000106626
-0.000149075
-0.000185379
-0.00020992
-0.000218884
-0.00021045
-0.000184696
-0.000143418
-8.9932e-05
-2.88543e-05
3.44282e-05
9.39813e-05
0.000140307
0.000181006
0.000201885
0.000169012
0.000119204
8.19891e-05
5.11969e-05
2.56368e-05
5.49943e-06
-9.91456e-06
-2.13728e-05
-2.95021e-05
-3.48336e-05
-3.78294e-05
-3.89213e-05
-3.84525e-05
-3.62799e-05
-3.23001e-05
-3.13598e-05
-4.57682e-05
-2.58721e-05
3.94694e-05
3.26557e-06
-4.37836e-05
-6.58295e-06
1.00255e-06
1.13583e-08
-8.53447e-11
-9.01614e-05
-5.63226e-05
-9.67486e-06
2.82549e-05
4.56423e-05
3.94659e-05
1.22538e-05
-2.99461e-05
-7.88633e-05
-0.000125524
-0.000161956
-0.000182439
-0.000183986
-0.000166209
-0.000130945
-8.18371e-05
-2.39069e-05
3.70591e-05
9.47114e-05
0.000139271
0.000177574
0.000200239
0.000173546
0.000123998
8.47011e-05
5.33511e-05
2.69576e-05
5.93198e-06
-1.0357e-05
-2.26763e-05
-3.1642e-05
-3.77558e-05
-4.14583e-05
-4.31384e-05
-4.31644e-05
-4.18256e-05
-3.89342e-05
-3.43683e-05
-3.29922e-05
-4.70642e-05
-2.67174e-05
3.90965e-05
3.05331e-06
-4.41171e-05
-6.69567e-06
1.00783e-06
1.15803e-08
-8.62495e-11
-7.7923e-05
-3.80706e-05
1.65298e-05
6.05906e-05
7.99425e-05
7.14723e-05
3.94634e-05
-7.38443e-06
-5.82893e-05
-0.000102733
-0.000132524
-0.000142924
-0.000132706
-0.000103573
-5.94486e-05
-5.81183e-06
5.12499e-05
0.000105283
0.00014603
0.000177618
0.000199328
0.000181056
0.000131799
8.91915e-05
5.72073e-05
2.97902e-05
7.69874e-06
-9.5928e-06
-2.28705e-05
-3.27642e-05
-3.97645e-05
-4.42835e-05
-4.66909e-05
-4.73182e-05
-4.64845e-05
-4.44376e-05
-4.09561e-05
-3.59063e-05
-3.41614e-05
-4.79297e-05
-2.73249e-05
3.89105e-05
3.1693e-06
-4.43228e-05
-6.7949e-06
1.01787e-06
1.19597e-08
-8.69891e-11
-5.17782e-05
-1.42235e-05
3.6807e-05
7.7004e-05
9.22894e-05
7.99401e-05
4.56383e-05
-1.58349e-08
-4.48438e-05
-7.82169e-05
-9.32663e-05
-8.75722e-05
-6.25684e-05
-2.24118e-05
2.70041e-05
7.91296e-05
0.000128106
0.000164753
0.000185456
0.000201603
0.000193653
0.000144015
9.61241e-05
6.33352e-05
3.46254e-05
1.12165e-05
-7.26546e-06
-2.16476e-05
-3.2594e-05
-4.05995e-05
-4.60663e-05
-4.93384e-05
-5.07291e-05
-5.05245e-05
-4.90059e-05
-4.6389e-05
-4.24279e-05
-3.69823e-05
-3.49255e-05
-4.84151e-05
-2.77299e-05
3.88767e-05
3.57342e-06
-4.44138e-05
-6.88276e-06
1.03186e-06
1.24735e-08
-8.75749e-11
-2.51046e-05
3.81299e-06
4.22296e-05
7.04507e-05
7.70016e-05
6.05863e-05
2.82499e-05
-8.40874e-06
-3.74036e-05
-4.9972e-05
-4.24641e-05
-1.61568e-05
2.42497e-05
7.23015e-05
0.000120904
0.000164036
0.000197169
0.000207189
0.000212202
0.000210186
0.000162181
0.000108236
7.26342e-05
4.24471e-05
1.7304e-05
-2.73144e-06
-1.84882e-05
-3.07014e-05
-3.98958e-05
-4.64781e-05
-5.0787e-05
-5.31146e-05
-5.37311e-05
-5.28887e-05
-5.08401e-05
-4.77774e-05
-4.34375e-05
-3.76766e-05
-3.53612e-05
-4.85988e-05
-2.79742e-05
3.89524e-05
4.1815e-06
-4.44158e-05
-6.96023e-06
1.04822e-06
1.30696e-08
-8.8025e-11
-7.25087e-06
1.00479e-05
3.10397e-05
4.22276e-05
3.68032e-05
1.65249e-05
-9.67957e-06
-3.00384e-05
-3.45785e-05
-1.85457e-05
1.67099e-05
6.5244e-05
0.00011907
0.000170105
0.000211574
0.000239948
0.000248074
0.000236998
0.000222151
0.00018935
0.000132362
8.62493e-05
5.48353e-05
2.73734e-05
5.08925e-06
-1.25661e-05
-2.64299e-05
-3.7118e-05
-4.50714e-05
-5.06421e-05
-5.41254e-05
-5.57767e-05
-5.58364e-05
-5.45318e-05
-5.20958e-05
-4.87033e-05
-4.40793e-05
-3.80797e-05
-3.55617e-05
-4.85851e-05
-2.81024e-05
3.90879e-05
4.86362e-06
-4.43663e-05
-7.02622e-06
1.06466e-06
1.36682e-08
-8.8362e-11
-3.8985e-07
5.97492e-06
1.00464e-05
3.80991e-06
-1.42275e-05
-3.80747e-05
-5.63257e-05
-5.75158e-05
-3.48959e-05
1.10622e-05
7.33156e-05
0.000141259
0.000204272
0.000253688
0.000284294
0.000296255
0.000280196
0.000251717
0.000223261
0.000168228
0.00011066
7.23811e-05
4.23999e-05
1.71393e-05
-3.1133e-06
-1.91528e-05
-3.17376e-05
-4.13937e-05
-4.85087e-05
-5.33975e-05
-5.63262e-05
-5.75248e-05
-5.72118e-05
-5.5597e-05
-5.28993e-05
-4.92816e-05
-4.44615e-05
-3.82958e-05
-3.56332e-05
-4.8493e-05
-2.81588e-05
3.92316e-05
5.46287e-06
-4.43091e-05
-7.07811e-06
1.07832e-06
1.41674e-08
-8.86039e-11
1.00575e-07
-3.90764e-07
-7.25314e-06
-2.51081e-05
-5.17821e-05
-7.79266e-05
-9.01639e-05
-7.7426e-05
-3.5683e-05
3.05302e-05
0.000110095
0.000189401
0.000256493
0.000302922
0.000325012
0.000325924
0.00029549
0.00025717
0.000222196
0.000156764
9.97092e-05
6.54324e-05
3.5882e-05
1.17669e-05
-7.39892e-06
-2.25828e-05
-3.4494e-05
-4.36074e-05
-5.02829e-05
-5.48162e-05
-5.74572e-05
-5.8422e-05
-5.79167e-05
-5.6141e-05
-5.33054e-05
-4.95734e-05
-4.46686e-05
-3.84109e-05
-3.55475e-05
-4.82387e-05
-2.83327e-05
3.88716e-05
5.77648e-06
-4.40252e-05
-7.06183e-06
1.07931e-06
1.42276e-08
-8.82597e-11
)
;

boundaryField
{
    inlet
    {
        type            cyclic;
    }
    outlet
    {
        type            cyclic;
    }
    walls
    {
        type            calculated;
        value           nonuniform List<scalar> 
96
(
-5.6039e-17
1.49766e-15
-1.21255e-15
-4.36327e-14
-2.01127e-13
-5.42398e-13
-8.98636e-13
-6.02816e-13
9.15348e-13
3.07181e-12
4.69413e-12
4.9786e-12
3.53834e-12
4.77172e-13
-3.84398e-12
-9.00545e-12
-1.46239e-11
-2.04196e-11
-2.62481e-11
-3.2032e-11
-3.78044e-11
-4.19105e-11
-4.58609e-11
-4.97957e-11
-5.36456e-11
-5.72841e-11
-6.06369e-11
-6.36935e-11
-6.64251e-11
-6.88965e-11
-7.10948e-11
-7.31332e-11
-7.49835e-11
-7.66528e-11
-7.81779e-11
-7.95706e-11
-8.08603e-11