/*--------------------------------*- C++ -*----------------------------------*\
| =========                 |                                                 |
| \\      /  F ield         | OpenFOAM: The Open Source CFD Toolbox           |
|  \\    /   O peration     | Version:  2412                                  |
|   \\  /    A nd           | Website:  www.openfoam.com                      |
|    \\/     M anipulation  |                                                 |
\*---------------------------------------------------------------------------*/
FoamFile
{
    version     2.0;
    format      ascii;
    arch        "LSB;label=32;scalar=64";
    class       volScalarField;
    location    "2130";
    object      I5;
}
// * * * * * * * * * * * * * * * * * * * * * * * * * * * * * * * * * * * * * //

dimensions      [0 0 0 0 0 0 0];

internalField   nonuniform List<scalar> 
2304
(
-1.98151e-10
-1.9726e-10
-1.9571e-10
-1.93796e-10
-1.91802e-10
-1.8995e-10
-1.88378e-10
-1.87137e-10
-1.86205e-10
-1.85507e-10
-1.84941e-10
-1.84397e-10
-1.83785e-10
-1.83045e-10
-1.82144e-10
-1.81062e-10
-1.7977e-10
-1.78208e-10
-1.76287e-10
-1.73892e-10
-1.70871e-10
-1.67078e-10
-1.62375e-10
-1.56672e-10
-1.4994e-10
-1.42227e-10
-1.33684e-10
-1.24551e-10
-1.1502e-10
-1.05031e-10
-9.45904e-11
-8.37709e-11
-7.2685e-11
-6.14987e-11
-5.0455e-11
-3.98824e-11
-3.01706e-11
-2.17053e-11
-1.47732e-11
-9.47782e-12
-5.71258e-12
-3.21201e-12
-1.65639e-12
-7.58002e-13
-2.89998e-13
-8.25426e-14
-1.33853e-14
-7.08669e-16
-2.3154e-07
-2.30506e-07
-2.28706e-07
-2.26481e-07
-2.24163e-07
-2.22009e-07
-2.20178e-07
-2.1873e-07
-2.17639e-07
-2.16821e-07
-2.16156e-07
-2.15516e-07
-2.14797e-07
-2.13927e-07
-2.12869e-07
-2.116e-07
-2.10088e-07
-2.08263e-07
-2.05997e-07
-2.03178e-07
-1.99637e-07
-1.95202e-07
-1.89715e-07
-1.83072e-07
-1.75238e-07
-1.66263e-07
-1.56312e-07
-1.4566e-07
-1.34542e-07
-1.22882e-07
-1.10696e-07
-9.80745e-08
-8.51515e-08
-7.21185e-08
-5.92517e-08
-4.69227e-08
-3.55737e-08
-2.56479e-08
-1.74855e-08
-1.12143e-08
-6.75907e-09
-3.81313e-09
-1.98777e-09
-9.33471e-10
-3.77444e-10
-1.15313e-10
-1.19995e-11
-1.33853e-14
-1.57609e-05
-1.56987e-05
-1.55902e-05
-1.5456e-05
-1.53156e-05
-1.51845e-05
-1.50722e-05
-1.49823e-05
-1.49134e-05
-1.48602e-05
-1.48154e-05
-1.47714e-05
-1.47217e-05
-1.46619e-05
-1.45894e-05
-1.45025e-05
-1.43988e-05
-1.42741e-05
-1.41278e-05
-1.39467e-05
-1.37199e-05
-1.34368e-05
-1.30871e-05
-1.26638e-05
-1.21639e-05
-1.15891e-05
-1.09473e-05
-1.02537e-05
-9.52351e-06
-8.75075e-06
-7.93663e-06
-7.08695e-06
-6.20987e-06
-5.31714e-06
-4.42594e-06
-3.55996e-06
-2.74841e-06
-2.02256e-06
-1.41e-06
-9.29514e-07
-5.76309e-07
-3.35121e-07
-1.8116e-07
-8.80839e-08
-3.3702e-08
-5.84276e-09
-1.15313e-10
-8.25424e-14
-0.000183163
-0.000182645
-0.000181741
-0.000180622
-0.000179451
-0.000178358
-0.000177425
-0.000176681
-0.000176115
-0.000175681
-0.000175317
-0.000174956
-0.000174539
-0.000174024
-0.000173386
-0.000172604
-0.000171652
-0.000170491
-0.000169141
-0.000167458
-0.00016534
-0.000162688
-0.0001594
-0.000155402
-0.000150646
-0.000145119
-0.000138843
-0.000131894
-0.00012438
-0.00011623
-0.000107441
-9.80419e-05
-8.80854e-05
-7.76596e-05
-6.69111e-05
-5.60599e-05
-4.54026e-05
-3.53008e-05
-2.61543e-05
-1.83672e-05
-1.21131e-05
-7.43281e-06
-4.11042e-06
-1.82314e-06
-4.60135e-07
-3.37019e-08
-3.77444e-10
-2.89998e-13
-0.000621063
-0.000620098
-0.000618418
-0.000616355
-0.000614226
-0.000612281
-0.000610679
-0.000609477
-0.000608648
-0.000608099
-0.0006077
-0.000607311
-0.000606805
-0.000606082
-0.00060507
-0.000603701
-0.0006019
-0.000599578
-0.000596796
-0.0005932
-0.000588561
-0.000582658
-0.000575248
-0.000566135
-0.00055518
-0.00054228
-0.000527331
-0.000510189
-0.000490684
-0.000468822
-0.000444528
-0.000417742
-0.000388457
-0.000356766
-0.000322886
-0.000287141
-0.000249928
-0.000211696
-0.000172991
-0.000134611
-9.74447e-05
-6.32372e-05
-3.35507e-05
-1.16652e-05
-1.82313e-06
-8.80837e-08
-9.33469e-10
-7.58e-13
-0.0010208
-0.0010201
-0.00101894
-0.00101758
-0.00101629
-0.00101527
-0.00101466
-0.00101447
-0.00101469
-0.00101521
-0.00101591
-0.00101667
-0.00101734
-0.0010178
-0.00101794
-0.00101764
-0.00101678
-0.00101525
-0.00101313
-0.00101
-0.00100563
-0.000999804
-0.000992291
-0.000982903
-0.000971515
-0.000958024
-0.000942239
-0.000923785
-0.0009022
-0.000877487
-0.000849624
-0.000818562
-0.00078443
-0.000747561
-0.00070838
-0.000667129
-0.000623424
-0.000575698
-0.000520549
-0.000451519
-0.000359246
-0.000242451
-0.000119523
-3.35506e-05
-4.11041e-06
-1.81159e-07
-1.98776e-09
-1.65638e-12
-0.00115431
-0.00115431
-0.00115431
-0.00115431
-0.00115431
-0.00115431
-0.00115431
-0.00115431
-0.00115431
-0.00115431
-0.00115431
-0.00115431
-0.0011543
-0.0011543
-0.00115429
-0.00115429
-0.00115428
-0.00115426
-0.00115425
-0.00115423
-0.0011542
-0.00115417
-0.00115414
-0.0011541
-0.00115405
-0.001154
-0.00115392
-0.00115134
-0.0011321
-0.00111088
-0.00108815
-0.00106456
-0.00104117
-0.00101927
-0.00100008
-0.000984042
-0.000969869
-0.000952946
-0.000923276
-0.000862232
-0.000733231
-0.000508586
-0.000242451
-6.3237e-05
-7.43279e-06
-3.3512e-07
-3.81312e-09
-3.212e-12
-0.00115432
-0.00115432
-0.00115432
-0.00115432
-0.00115432
-0.00115432
-0.00115433
-0.00115433
-0.00115434
-0.00115435
-0.00115435
-0.00115436
-0.00115437
-0.00115438
-0.00115439
-0.0011544
-0.0011544
-0.00115441
-0.00115441
-0.0011544
-0.00115439
-0.00115437
-0.00115435
-0.00115431
-0.00115427
-0.00115421
-0.00115413
-0.00115404
-0.00115395
-0.00115387
-0.00115377
-0.00115365
-0.00115349
-0.00115329
-0.00115304
-0.00115274
-0.00115241
-0.00115205
-0.00115165
-0.00115143
-0.00102542
-0.000733229
-0.000359244
-9.74442e-05
-1.2113e-05
-5.76308e-07
-6.75905e-09
-5.71256e-12
-0.00115424
-0.00115423
-0.00115423
-0.00115423
-0.00115424
-0.00115424
-0.00115425
-0.00115426
-0.00115427
-0.00115429
-0.00115431
-0.00115433
-0.00115435
-0.00115437
-0.00115439
-0.0011544
-0.00115442
-0.00115443
-0.00115444
-0.00115444
-0.00115443
-0.00115441
-0.00115438
-0.00115432
-0.00115425
-0.00115416
-0.00115406
-0.00115394
-0.00115378
-0.00115359
-0.00115337
-0.00115311
-0.00115282
-0.00115254
-0.00115229
-0.00115211
-0.001152
-0.00115187
-0.00115156
-0.00115097
-0.00115143
-0.000862229
-0.000451517
-0.00013461
-1.83671e-05
-9.29512e-07
-1.12142e-08
-9.4778e-12
-0.00115425
-0.00115425
-0.00115425
-0.00115425
-0.00115426
-0.00115426
-0.00115427
-0.00115429
-0.00115431
-0.00115433
-0.00115435
-0.00115438
-0.0011544
-0.00115442
-0.00115445
-0.00115446
-0.00115448
-0.00115449
-0.0011545
-0.00115449
-0.00115446
-0.0011544
-0.00115431
-0.00115417
-0.001154
-0.00115379
-0.00115355
-0.00115326
-0.00115293
-0.00115259
-0.00115226
-0.00115198
-0.00115178
-0.00115173
-0.00115184
-0.00115206
-0.00115228
-0.00115235
-0.00115206
-0.00115156
-0.00115165
-0.000923272
-0.000520546
-0.00017299
-2.61541e-05
-1.40999e-06
-1.74855e-08
-1.47732e-11
-0.00115421
-0.00115421
-0.00115421
-0.00115421
-0.00115422
-0.00115423
-0.00115425
-0.00115427
-0.0011543
-0.00115433
-0.00115437
-0.00115441
-0.00115444
-0.00115448
-0.00115451
-0.00115454
-0.00115456
-0.00115458
-0.00115459
-0.00115457
-0.00115451
-0.00115441
-0.00115423
-0.00115397
-0.00115365
-0.00115326
-0.00115282
-0.00115234
-0.00115182
-0.00115135
-0.001151
-0.00115082
-0.00115089
-0.00115121
-0.00115171
-0.00115223
-0.00115259
-0.00115263
-0.00115235
-0.00115187
-0.00115205
-0.000952942
-0.000575695
-0.000211695
-3.53007e-05
-2.02255e-06
-2.56478e-08
-2.17052e-11
-0.00115415
-0.00115415
-0.00115416
-0.00115416
-0.00115417
-0.00115419
-0.00115422
-0.00115426
-0.0011543
-0.00115435
-0.0011544
-0.00115446
-0.00115451
-0.00115456
-0.00115461
-0.00115466
-0.00115469
-0.00115472
-0.00115472
-0.00115468
-0.00115458
-0.0011544
-0.00115408
-0.00115365
-0.00115309
-0.00115247
-0.00115182
-0.00115119
-0.00115062
-0.00115022
-0.00115007
-0.00115024
-0.00115071
-0.00115139
-0.0011521
-0.00115261
-0.00115277
-0.00115259
-0.00115228
-0.001152
-0.00115241
-0.000969865
-0.000623422
-0.000249927
-4.54025e-05
-2.74841e-06
-3.55737e-08
-3.01707e-11
-0.0011541
-0.0011541
-0.0011541
-0.00115412
-0.00115413
-0.00115416
-0.0011542
-0.00115426
-0.00115432
-0.00115439
-0.00115447
-0.00115455
-0.00115462
-0.00115469
-0.00115476
-0.00115482
-0.00115487
-0.00115489
-0.00115487
-0.00115479
-0.00115461
-0.00115431
-0.00115382
-0.00115315
-0.00115233
-0.00115145
-0.00115063
-0.00114997
-0.00114953
-0.00114941
-0.00114967
-0.00115027
-0.00115109
-0.00115193
-0.00115255
-0.00115278
-0.00115261
-0.00115223
-0.00115206
-0.00115211
-0.00115274
-0.00098404
-0.000667127
-0.000287141
-5.60599e-05
-3.55996e-06
-4.69229e-08
-3.98826e-11
-0.00115405
-0.00115405
-0.00115406
-0.00115408
-0.0011541
-0.00115415
-0.0011542
-0.00115428
-0.00115436
-0.00115446
-0.00115457
-0.00115468
-0.00115479
-0.00115488
-0.00115497
-0.00115504
-0.00115508
-0.00115507
-0.00115501
-0.00115484
-0.00115454
-0.00115405
-0.00115334
-0.00115244
-0.00115142
-0.00115039
-0.00114954
-0.00114899
-0.00114887
-0.00114919
-0.00114989
-0.00115083
-0.00115178
-0.00115247
-0.00115274
-0.00115255
-0.0011521
-0.00115171
-0.00115184
-0.00115229
-0.00115304
-0.00100008
-0.00070838
-0.000322887
-6.69114e-05
-4.42597e-06
-5.92522e-08
-5.04555e-11
-0.00115401
-0.00115401
-0.00115403
-0.00115405
-0.00115409
-0.00115415
-0.00115423
-0.00115433
-0.00115445
-0.00115458
-0.00115473
-0.00115487
-0.00115501
-0.00115513
-0.00115522
-0.00115529
-0.0011553
-0.00115522
-0.00115505
-0.00115469
-0.00115423
-0.00115363
-0.00115276
-0.00115172
-0.00115059
-0.00114951
-0.00114877
-0.00114858
-0.00114887
-0.00114963
-0.00115065
-0.00115166
-0.00115241
-0.00115269
-0.00115247
-0.00115193
-0.00115139
-0.00115121
-0.00115173
-0.00115254
-0.00115329
-0.00101927
-0.000747563
-0.000356769
-7.76604e-05
-5.31721e-06
-7.21196e-08
-6.14996e-11
-0.00115398
-0.00115399
-0.00115401
-0.00115404
-0.0011541
-0.00115417
-0.00115428
-0.00115442
-0.00115458
-0.00115475
-0.00115494
-0.00115513
-0.00115529
-0.00115542
-0.0011555
-0.00115553
-0.00115545
-0.00115519
-0.00115487
-0.0011544
-0.00115369
-0.00114526
-0.00113869
-0.0011356
-0.00113632
-0.00114146
-0.0011486
-0.00114875
-0.00114952
-0.00115056
-0.00115162
-0.00115239
-0.00115267
-0.00115241
-0.00115178
-0.00115109
-0.00115071
-0.00115089
-0.00115178
-0.00115282
-0.00115349
-0.00104117
-0.000784434
-0.00038846
-8.80868e-05
-6.21001e-06
-8.51535e-08
-7.26867e-11
-0.00115398
-0.00115399
-0.00115401
-0.00115405
-0.00115413
-0.00115423
-0.00115437
-0.00115455
-0.00115475
-0.00115498
-0.00115522
-0.00115544
-0.00115563
-0.00115574
-0.00115576
-0.00115566
-0.00115541
-0.00115501
-0.00115442
-0.00114263
-0.00113129
-0.00112358
-0.00112017
-0.00112033
-0.00112375
-0.00112996
-0.00113876
-0.00114958
-0.00115057
-0.00115167
-0.00115244
-0.0011527
-0.00115239
-0.00115166
-0.00115083
-0.00115027
-0.00115024
-0.00115082
-0.00115198
-0.00115311
-0.00115365
-0.00106457
-0.000818568
-0.000417748
-9.80442e-05
-7.08717e-06
-9.80778e-08
-8.37737e-11
-0.00115399
-0.001154
-0.00115404
-0.00115409
-0.00115419
-0.00115432
-0.0011545
-0.00115473
-0.00115499
-0.00115527
-0.00115555
-0.0011558
-0.00115597
-0.00115601
-0.00115586
-0.0011556
-0.00115517
-0.0011461
-0.00113062
-0.00111846
-0.00111019
-0.00110483
-0.00110354
-0.00110611
-0.00111209
-0.00112083
-0.00113101
-0.00114193
-0.00115177
-0.00115255
-0.00115281
-0.00115244
-0.00115162
-0.00115064
-0.00114989
-0.00114967
-0.00115007
-0.001151
-0.00115226
-0.00115337
-0.00115377
-0.00108815
-0.000849633
-0.000444537
-0.000107444
-7.93696e-06
-1.10701e-07
-9.45947e-11
-0.00115403
-0.00115405
-0.00115409
-0.00115416
-0.00115428
-0.00115445
-0.00115468
-0.00115495
-0.00115527
-0.00115561
-0.00115592
-0.00115616
-0.00115625
-0.00115613
-0.00115581
-0.00115476
-0.0011361
-0.00111959
-0.00110623
-0.00109538
-0.00108851
-0.00108563
-0.00108693
-0.00109202
-0.00110029
-0.00111089
-0.00112281
-0.0011343
-0.00114527
-0.00115293
-0.00115255
-0.00115167
-0.00115056
-0.00114963
-0.00114919
-0.00114941
-0.00115022
-0.00115135
-0.00115259
-0.00115359
-0.00115387
-0.00111089
-0.0008775
-0.000468834
-0.000116235
-8.75121e-06
-1.22889e-07
-1.05037e-10
-0.00115409
-0.00115411
-0.00115416
-0.00115426
-0.00115441
-0.00115462
-0.00115489
-0.00115522
-0.00115559
-0.00115596
-0.00115628
-0.00115643
-0.00115636
-0.00115604
-0.001148
-0.00112692
-0.00110869
-0.00109312
-0.00108033
-0.00107141
-0.0010669
-0.00106671
-0.00107059
-0.001078
-0.0010882
-0.00110026
-0.00111307
-0.00112547
-0.00113595
-0.00114527
-0.00115177
-0.00115057
-0.00114952
-0.00114887
-0.00114887
-0.00114953
-0.00115062
-0.00115182
-0.00115293
-0.00115378
-0.00115395
-0.00113211
-0.000902215
-0.0004907
-0.000124387
-9.52414e-06
-1.34552e-07
-1.15029e-10
-0.00115416
-0.00115419
-0.00115426
-0.00115438
-0.00115456
-0.00115481
-0.00115513
-0.00115551
-0.00115591
-0.00115628
-0.00115651
-0.00115651
-0.0011562
-0.00114163
-0.00111895
-0.00109873
-0.00107998
-0.00106497
-0.00105405
-0.00104767
-0.00104587
-0.00104829
-0.00105448
-0.0010638
-0.00107545
-0.00108849
-0.00110183
-0.00111441
-0.00112546
-0.00113429
-0.0011419
-0.00114957
-0.00114875
-0.00114858
-0.00114899
-0.00114997
-0.00115119
-0.00115234
-0.00115326
-0.00115394
-0.00115404
-0.00115135
-0.000923804
-0.000510208
-0.000131902
-1.02545e-05
-1.45672e-07
-1.24562e-10
-0.00115425
-0.00115429
-0.00115437
-0.0011545
-0.00115472
-0.00115501
-0.00115537
-0.00115578
-0.00115618
-0.00115646
-0.00115653
-0.00115627
-0.00113584
-0.00111125
-0.00108842
-0.00106738
-0.00104976
-0.00103669
-0.00102836
-0.00102475
-0.00102558
-0.00103039
-0.00103856
-0.00104939
-0.00106204
-0.00107559
-0.00108914
-0.00110182
-0.00111305
-0.00112278
-0.00113098
-0.00113872
-0.0011486
-0.00114877
-0.00114954
-0.00115063
-0.00115182
-0.00115282
-0.00115355
-0.00115406
-0.00115413
-0.00115392
-0.00094226
-0.000527354
-0.000138853
-1.09483e-05
-1.56328e-07
-1.33698e-10
-0.00115434
-0.00115438
-0.00115447
-0.00115463
-0.00115486
-0.00115518
-0.00115557
-0.00115596
-0.00115626
-0.00115637
-0.00115617
-0.00113063
-0.00110414
-0.00107864
-0.0010551
-0.00103511
-0.0010197
-0.00100927
-0.00100377
-0.00100292
-0.00100623
-0.00101313
-0.00102292
-0.00103486
-0.00104813
-0.00106195
-0.00107558
-0.00108847
-0.00110023
-0.00111085
-0.00112079
-0.00112992
-0.00114138
-0.0011495
-0.00115038
-0.00115144
-0.00115246
-0.00115326
-0.00115379
-0.00115416
-0.00115421
-0.001154
-0.000958047
-0.000542305
-0.00014513
-1.15903e-05
-1.66282e-07
-1.42243e-10
-0.0011544
-0.00115444
-0.00115454
-0.00115471
-0.00115496
-0.00115528
-0.00115563
-0.00115592
-0.00115605
-0.00115561
-0.0011259
-0.00109767
-0.00106961
-0.00104354
-0.00102114
-0.00100341
-0.00099076
-0.000983262
-0.000980635
-0.000982393
-0.000987932
-0.000996589
-0.00100765
-0.00102038
-0.00103408
-0.00104812
-0.00106202
-0.00107542
-0.00108816
-0.00110024
-0.00111203
-0.0011237
-0.00113624
-0.00115059
-0.00115141
-0.00115233
-0.00115309
-0.00115364
-0.001154
-0.00115425
-0.00115427
-0.00115405
-0.000971539
-0.000555206
-0.000150658
-1.21652e-05
-1.75258e-07
-1.49958e-10
-0.00115439
-0.00115443
-0.00115452
-0.00115469
-0.00115493
-0.00115521
-0.00115543
-0.00115554
-0.0011528
-0.00112158
-0.00109184
-0.00106144
-0.00103292
-0.00100808
-0.000987958
-0.000973068
-0.000963505
-0.000959022
-0.000959147
-0.000963272
-0.000970728
-0.000980827
-0.00099288
-0.00100625
-0.00102037
-0.00103484
-0.00104936
-0.00106376
-0.00107795
-0.00109196
-0.00110605
-0.00112027
-0.00113552
-0.00115172
-0.00115244
-0.00115315
-0.00115365
-0.00115397
-0.00115417
-0.00115432
-0.00115431
-0.0011541
-0.000982928
-0.000566162
-0.000155414
-1.26651e-05
-1.83094e-07
-1.56691e-10
-0.00115425
-0.00115429
-0.00115436
-0.00115449
-0.00115466
-0.00115479
-0.00115483
-0.00114912
-0.00111732
-0.00108654
-0.00105407
-0.00102329
-0.00099608
-0.000973571
-0.000956384
-0.000944689
-0.000938283
-0.000936706
-0.000939357
-0.000945566
-0.000954649
-0.000965946
-0.000978855
-0.000992873
-0.00100763
-0.00102289
-0.00103852
-0.00105443
-0.00107053
-0.00108686
-0.00110347
-0.0011201
-0.00113861
-0.00115276
-0.00115334
-0.00115382
-0.00115408
-0.00115423
-0.00115431
-0.00115438
-0.00115435
-0.00115414
-0.000992315
-0.000575274
-0.000159412
-1.30884e-05
-1.89737e-07
-1.62394e-10
-0.00115388
-0.00115389
-0.00115392
-0.00115395
-0.00115394
-0.0011539
-0.00114372
-0.00111222
-0.0010809
-0.00104724
-0.00101455
-0.000985154
-0.000960326
-0.000940835
-0.000926956
-0.000918557
-0.000915217
-0.000916338
-0.000921253
-0.00092928
-0.000939771
-0.000952148
-0.000965941
-0.000980815
-0.000996567
-0.0010131
-0.00103035
-0.00104824
-0.00106665
-0.00108556
-0.00110476
-0.0011235
-0.00114518
-0.00115363
-0.00115405
-0.00115431
-0.0011544
-0.00115441
-0.0011544
-0.00115441
-0.00115437
-0.00115417
-0.000999826
-0.000582681
-0.000162699
-1.3438e-05
-1.95222e-07
-1.67095e-10
-0.0011531
-0.00115305
-0.00115292
-0.00115279
-0.00115266
-0.00113546
-0.00110561
-0.00107456
-0.00104034
-0.00100636
-0.00097512
-0.000948151
-0.000926425
-0.00091036
-0.000899925
-0.000894763
-0.000894306
-0.000897888
-0.000904826
-0.000914477
-0.000926274
-0.000939768
-0.000954641
-0.000970712
-0.000987908
-0.0010062
-0.00102554
-0.00104581
-0.00106683
-0.00108844
-0.00111012
-0.0011312
-0.00115369
-0.00115423
-0.00115454
-0.00115462
-0.00115458
-0.00115451
-0.00115446
-0.00115443
-0.00115439
-0.0011542
-0.00100565
-0.000588581
-0.000165349
-1.37209e-05
-1.99653e-07
-1.70885e-10
-0.00115143
-0.00115136
-0.00115115
-0.00114727
-0.00112339
-0.00109674
-0.00106678
-0.00103276
-0.000998137
-0.00096556
-0.000936771
-0.000912989
-0.000894818
-0.000882364
-0.000875361
-0.000873294
-0.000875516
-0.000881343
-0.000890134
-0.000901325
-0.000914474
-0.000929275
-0.000945555
-0.000963254
-0.000982367
-0.00100288
-0.0010247
-0.00104762
-0.00107135
-0.00109531
-0.00111839
-0.00114256
-0.0011544
-0.00115469
-0.00115484
-0.00115479
-0.00115468
-0.00115457
-0.00115449
-0.00115444
-0.0011544
-0.00115423
-0.00101002
-0.000593214
-0.000167464
-1.39475e-05
-2.0319e-07
-1.73902e-10
-0.00114704
-0.00114013
-0.00112699
-0.001108
-0.00108528
-0.00105668
-0.00102363
-0.000989084
-0.000955772
-0.000925643
-0.00090013
-0.000880049
-0.000865684
-0.000856895
-0.00085324
-0.000854109
-0.000858832
-0.000866764
-0.000877344
-0.000890132
-0.000904822
-0.000921246
-0.000939345
-0.000959129
-0.000980609
-0.00100373
-0.00102831
-0.00105399
-0.00108027
-0.00110617
-0.00113056
-0.00115442
-0.00115487
-0.00115505
-0.00115501
-0.00115487
-0.00115472
-0.00115459
-0.0011545
-0.00115444
-0.00115441
-0.00115425
-0.00101314
-0.000596804
-0.000169145
-1.41282e-05
-2.06003e-07
-1.76293e-10
-0.00110982
-0.00110304
-0.00109005
-0.00107054
-0.00104333
-0.00101178
-0.000978082
-0.00094476
-0.000913899
-0.000887134
-0.000865497
-0.000849465
-0.000839053
-0.000833921
-0.000833517
-0.000837195
-0.000844316
-0.000854319
-0.000866764
-0.000881342
-0.000897884
-0.000916331
-0.000936694
-0.000959004
-0.000983236
-0.00100924
-0.00103665
-0.00106492
-0.00109307
-0.00111954
-0.00114605
-0.00115501
-0.0011552
-0.00115522
-0.00115507
-0.00115489
-0.00115472
-0.00115458
-0.00115449
-0.00115443
-0.00115441
-0.00115426
-0.00101526
-0.000599581
-0.000170492
-1.42742e-05
-2.08264e-07
-1.78209e-10
-0.0010748
-0.00106566
-0.00104865
-0.00102496
-0.000995652
-0.0009636
-0.000931084
-0.000900251
-0.000872886
-0.000850223
-0.000832945
-0.000821233
-0.000814875
-0.000813393
-0.000816181
-0.000822616
-0.000832141
-0.000844317
-0.000858832
-0.000875515
-0.000894303
-0.00091521
-0.000938272
-0.000963488
-0.000990736
-0.00101967
-0.00104972
-0.00107994
-0.00110866
-0.00113607
-0.00115517
-0.00115541
-0.00115545
-0.0011553
-0.00115508
-0.00115487
-0.00115469
-0.00115456
-0.00115448
-0.00115442
-0.0011544
-0.00115428
-0.00101678
-0.000601898
-0.00017165
-1.43986e-05
-2.10084e-07
-1.79767e-10
-0.00102791
-0.00101732
-0.000998216
-0.000972852
-0.000943507
-0.000912758
-0.000882866
-0.000855738
-0.000832789
-0.000814897
-0.000802422
-0.000795282
-0.00079309
-0.000795292
-0.000801292
-0.000810546
-0.000822617
-0.000837197
-0.000854111
-0.000873295
-0.000894762
-0.000918552
-0.000944679
-0.000973053
-0.00100339
-0.00103509
-0.00106735
-0.0010987
-0.00112689
-0.00115474
-0.0011556
-0.00115567
-0.00115553
-0.00115529
-0.00115504
-0.00115482
-0.00115466
-0.00115454
-0.00115446
-0.0011544
-0.0011544
-0.00115429
-0.00101764
-0.000603695
-0.0001726
-1.4502e-05
-2.11592e-07
-1.81055e-10
-0.000970312
-0.000959225
-0.000939709
-0.000914736
-0.00088705
-0.000859239
-0.000833393
-0.00081112
-0.000793492
-0.000781039
-0.000773816
-0.000771524
-0.000773663
-0.000779671
-0.000789022
-0.000801294
-0.000816183
-0.00083352
-0.000853243
-0.000875364
-0.000899926
-0.000926953
-0.000956378
-0.000987949
-0.00102113
-0.00105508
-0.0010884
-0.00111893
-0.00114799
-0.00115581
-0.00115586
-0.00115576
-0.0011555
-0.00115522
-0.00115497
-0.00115476
-0.00115461
-0.00115451
-0.00115445
-0.00115439
-0.00115439
-0.00115429
-0.00101793
-0.00060506
-0.000173381
-1.45888e-05
-2.12858e-07
-1.82135e-10
-0.000901893
-0.000891297
-0.000873008
-0.000850295
-0.000826085
-0.000802832
-0.00078243
-0.000766189
-0.000754822
-0.000748503
-0.000747016
-0.000749903
-0.000756628
-0.000766687
-0.000779673
-0.000795296
-0.000813398
-0.000833926
-0.0008569
-0.000882368
-0.000910363
-0.000940836
-0.000973571
-0.00100807
-0.00104354
-0.00107863
-0.00111125
-0.00114163
-0.00115604
-0.00115613
-0.00115601
-0.00115574
-0.00115542
-0.00115513
-0.00115488
-0.00115469
-0.00115456
-0.00115448
-0.00115442
-0.00115437
-0.00115438
-0.0011543
-0.00101779
-0.000606071
-0.000174018
-1.46612e-05
-2.13914e-07
-1.83034e-10
-0.000822161
-0.000813177
-0.000797877
-0.00077932
-0.00076035
-0.000743283
-0.000729778
-0.000720793
-0.000716646
-0.000717177
-0.000721951
-0.000730436
-0.000742128
-0.00075663
-0.000773667
-0.000793096
-0.000814882
-0.000839059
-0.000865691
-0.000894824
-0.00092643
-0.000960331
-0.000996085
-0.00103292
-0.00106962
-0.00110414
-0.00113585
-0.0011562
-0.00115636
-0.00115625
-0.00115597
-0.00115563
-0.00115529
-0.00115501
-0.00115479
-0.00115462
-0.00115451
-0.00115444
-0.0011544
-0.00115435
-0.00115437
-0.0011543
-0.00101732
-0.000606792
-0.000174532
-1.4721e-05
-2.14784e-07
-1.83774e-10
-0.000731485
-0.000725099
-0.000714367
-0.000701765
-0.000689831
-0.000680634
-0.000675494
-0.000674957
-0.000678949
-0.000687036
-0.000698652
-0.000713259
-0.000730438
-0.000749905
-0.000771528
-0.000795288
-0.000821241
-0.000849473
-0.000880057
-0.000912997
-0.000948158
-0.000985162
-0.0010233
-0.00106145
-0.00109768
-0.00113063
-0.00115627
-0.00115651
-0.00115643
-0.00115616
-0.0011558
-0.00115544
-0.00115513
-0.00115487
-0.00115468
-0.00115455
-0.00115446
-0.00115441
-0.00115438
-0.00115433
-0.00115436
-0.00115431
-0.00101666
-0.000607299
-0.00017495
-1.47707e-05
-2.15504e-07
-1.84387e-10
-0.000631011
-0.00062804
-0.000623279
-0.000618352
-0.000615223
-0.000615501
-0.000620044
-0.000628971
-0.000641894
-0.000658205
-0.000677289
-0.000698654
-0.000721954
-0.00074702
-0.000773822
-0.000802429
-0.000832953
-0.000865505
-0.000900137
-0.000936779
-0.000975129
-0.00101456
-0.00105408
-0.00109185
-0.00112591
-0.00115617
-0.00115652
-0.00115651
-0.00115627
-0.00115592
-0.00115555
-0.00115522
-0.00115494
-0.00115473
-0.00115457
-0.00115447
-0.0011544
-0.00115437
-0.00115435
-0.00115431
-0.00115435
-0.00115431
-0.00101591
-0.000607691
-0.000175312
-1.48148e-05
-2.16146e-07
-1.84932e-10
-0.000523493
-0.000524535
-0.000526869
-0.00053107
-0.000538207
-0.000549184
-0.000564327
-0.000583402
-0.000605843
-0.000630981
-0.000658206
-0.000687039
-0.000717181
-0.00074851
-0.000781047
-0.000814905
-0.00085023
-0.00088714
-0.000925648
-0.000965566
-0.00100637
-0.00104725
-0.00108654
-0.00112159
-0.00115561
-0.00115637
-0.00115646
-0.00115628
-0.00115596
-0.00115561
-0.00115527
-0.00115498
-0.00115475
-0.00115458
-0.00115446
-0.00115439
-0.00115435
-0.00115433
-0.00115433
-0.00115429
-0.00115435
-0.00115431
-0.0010152
-0.000608092
-0.000175678
-1.48598e-05
-2.16815e-07
-1.85501e-10
-0.000413661
-0.000419015
-0.00042906
-0.000443195
-0.000461325
-0.000483493
-0.000509531
-0.00053901
-0.000571334
-0.000605845
-0.000641898
-0.000678954
-0.000716651
-0.000754828
-0.000793498
-0.000832795
-0.000872891
-0.000913903
-0.000955775
-0.000998141
-0.00104034
-0.0010809
-0.00111732
-0.00115279
-0.00115605
-0.00115626
-0.00115618
-0.00115591
-0.00115559
-0.00115527
-0.00115499
-0.00115475
-0.00115458
-0.00115445
-0.00115436
-0.00115432
-0.0011543
-0.0011543
-0.00115431
-0.00115427
-0.00115434
-0.00115431
-0.00101468
-0.000608644
-0.000176113
-1.49132e-05
-2.17636e-07
-1.86202e-10
-0.000307758
-0.000317285
-0.000334834
-0.000358634
-0.000387376
-0.000420278
-0.000456833
-0.000496589
-0.000539012
-0.000583406
-0.000628976
-0.000674962
-0.000720798
-0.000766195
-0.000811125
-0.000855742
-0.000900254
-0.000944761
-0.000989084
-0.00103276
-0.00107456
-0.00111222
-0.00114911
-0.00115554
-0.00115592
-0.00115596
-0.00115578
-0.00115551
-0.00115522
-0.00115495
-0.00115473
-0.00115455
-0.00115442
-0.00115433
-0.00115428
-0.00115426
-0.00115426
-0.00115427
-0.00115429
-0.00115426
-0.00115433
-0.00115431
-0.00101447
-0.000609476
-0.000176681
-1.49822e-05
-2.18729e-07
-1.87136e-10
-0.000212341
-0.000225242
-0.000248947
-0.000280818
-0.000318598
-0.000360916
-0.000407119
-0.000456834
-0.000509534
-0.000564332
-0.000620049
-0.000675499
-0.000729781
-0.000782432
-0.000833395
-0.000882868
-0.000931085
-0.000978081
-0.00102363
-0.00106677
-0.00110561
-0.00114372
-0.00115483
-0.00115543
-0.00115563
-0.00115557
-0.00115537
-0.00115513
-0.00115489
-0.00115468
-0.0011545
-0.00115437
-0.00115428
-0.00115423
-0.0011542
-0.0011542
-0.00115422
-0.00115425
-0.00115427
-0.00115425
-0.00115433
-0.00115431
-0.00101466
-0.000610679
-0.000177425
-1.50722e-05
-2.20179e-07
-1.88379e-10
-0.000132887
-0.000147549
-0.000174809
-0.000211904
-0.000256217
-0.000306111
-0.000360917
-0.000420281
-0.000483497
-0.000549189
-0.000615505
-0.000680637
-0.000743285
-0.000802833
-0.00085924
-0.000912758
-0.000963598
-0.00101178
-0.00105668
-0.00109673
-0.00113545
-0.0011539
-0.00115479
-0.00115521
-0.00115528
-0.00115518
-0.00115501
-0.00115481
-0.00115462
-0.00115445
-0.00115432
-0.00115423
-0.00115417
-0.00115415
-0.00115415
-0.00115416
-0.00115419
-0.00115423
-0.00115426
-0.00115424
-0.00115432
-0.00115431
-0.00101528
-0.000612283
-0.000178359
-1.51846e-05
-2.22011e-07
-1.89952e-10
-7.27484e-05
-8.69418e-05
-0.000114257
-0.00015292
-0.000200759
-0.000256218
-0.0003186
-0.00038738
-0.00046133
-0.000538213
-0.000615228
-0.000689835
-0.000760355
-0.000826089
-0.000887053
-0.000943508
-0.00099565
-0.00104333
-0.00108527
-0.00112338
-0.00115266
-0.00115394
-0.00115467
-0.00115493
-0.00115496
-0.00115486
-0.00115472
-0.00115456
-0.00115441
-0.00115428
-0.00115419
-0.00115413
-0.0011541
-0.00115409
-0.0011541
-0.00115413
-0.00115417
-0.00115422
-0.00115426
-0.00115424
-0.00115432
-0.00115431
-0.00101629
-0.000614228
-0.000179452
-1.53157e-05
-2.24166e-07
-1.91803e-10
-3.26581e-05
-4.4217e-05
-6.81093e-05
-0.000104627
-0.00015292
-0.000211905
-0.00028082
-0.000358639
-0.0004432
-0.000531076
-0.000618359
-0.000701771
-0.000779325
-0.000850297
-0.000914736
-0.000972851
-0.00102495
-0.00107053
-0.001108
-0.00114726
-0.00115279
-0.00115395
-0.00115449
-0.00115469
-0.00115471
-0.00115463
-0.0011545
-0.00115438
-0.00115426
-0.00115416
-0.00115409
-0.00115405
-0.00115404
-0.00115405
-0.00115408
-0.00115412
-0.00115416
-0.00115421
-0.00115425
-0.00115423
-0.00115432
-0.00115431
-0.00101759
-0.000616357
-0.000180622
-1.5456e-05
-2.26483e-07
-1.93797e-10
-1.05729e-05
-1.82648e-05
-3.6495e-05
-6.81096e-05
-0.000114258
-0.000174811
-0.00024895
-0.000334838
-0.000429065
-0.000526874
-0.000623284
-0.00071437
-0.000797879
-0.000873009
-0.000939709
-0.000998217
-0.00104865
-0.00109005
-0.00112698
-0.00115115
-0.00115292
-0.00115392
-0.00115436
-0.00115452
-0.00115454
-0.00115447
-0.00115437
-0.00115426
-0.00115416
-0.00115409
-0.00115404
-0.00115401
-0.00115401
-0.00115403
-0.00115406
-0.0011541
-0.00115416
-0.00115421
-0.00115425
-0.00115423
-0.00115432
-0.00115431
-0.00101894
-0.000618419
-0.000181741
-1.55902e-05
-2.28706e-07
-1.9571e-10
-1.83131e-06
-5.82725e-06
-1.82649e-05
-4.42173e-05
-8.69426e-05
-0.000147551
-0.000225245
-0.000317289
-0.000419019
-0.000524539
-0.000628043
-0.0007251
-0.000813177
-0.000891296
-0.000959224
-0.00101732
-0.00106566
-0.00110304
-0.00114013
-0.00115136
-0.00115305
-0.00115389
-0.00115429
-0.00115443
-0.00115444
-0.00115438
-0.00115429
-0.00115419
-0.00115411
-0.00115405
-0.001154
-0.00115399
-0.00115399
-0.00115401
-0.00115405
-0.0011541
-0.00115415
-0.00115421
-0.00115425
-0.00115423
-0.00115432
-0.00115431
-0.0010201
-0.000620098
-0.000182644
-1.56986e-05
-2.30505e-07
-1.97259e-10
-8.02832e-08
-1.83131e-06
-1.05729e-05
-3.26582e-05
-7.2749e-05
-0.000132888
-0.000212344
-0.000307763
-0.000413666
-0.000523499
-0.000631016
-0.000731489
-0.000822164
-0.000901895
-0.000970313
-0.00102791
-0.0010748
-0.00110982
-0.00114704
-0.00115143
-0.0011531
-0.00115388
-0.00115425
-0.00115439
-0.0011544
-0.00115434
-0.00115425
-0.00115416
-0.00115409
-0.00115403
-0.00115399
-0.00115398
-0.00115398
-0.00115401
-0.00115405
-0.0011541
-0.00115415
-0.00115421
-0.00115425
-0.00115424
-0.00115432
-0.00115431
-0.0010208
-0.000621062
-0.000183162
-1.57608e-05
-2.31539e-07
-1.9815e-10
)
;

boundaryField
{
    inlet
    {
        type            cyclic;
    }
    outlet
    {
        type            cyclic;
    }
    walls
    {
        type            calculated;
        value           nonuniform List<scalar> 
96
(
-8.45235e-16
-1.5933e-14
-9.38409e-14
-3.20192e-13
-8.21085e-13
-1.77039e-12
-3.39909e-12
-5.99878e-12
-9.89256e-12
-1.53489e-11
-2.24758e-11
-3.11676e-11
-4.11302e-11
-5.19673e-11
-6.32785e-11
-7.47264e-11
-8.60623e-11
-9.7117e-11
-1.07777e-10
-1.17972e-10
-1.27695e-10
-1.37009e-10
-1.45721e-10
-1.53584e-10
-1.60444e-10
-1.66252e-10
-1.71037e-10
-1.74892e-10
-1.77957e-10
-1.80385e-10
-1.82327e-10
-1.83905e-10
-1.85208e-10
-1.86298e-10
-1.87206e-10
-1.87951e-10
-1.88568e-10
-1.89116e-10
-1.89689e-10
-1.90397e-10