/*--------------------------------*- C++ -*----------------------------------*\
| =========                 |                                                 |
| \\      /  F ield         | OpenFOAM: The Open Source CFD Toolbox           |
|  \\    /   O peration     | Version:  2412                                  |
|   \\  /    A nd           | Website:  www.openfoam.com                      |
|    \\/     M anipulation  |                                                 |
\*---------------------------------------------------------------------------*/
FoamFile
{
    version     2.0;
    format      ascii;
    arch        "LSB;label=32;scalar=64";
    class       volScalarField;
    location    "2130";
    object      k;
}
// * * * * * * * * * * * * * * * * * * * * * * * * * * * * * * * * * * * * * //

dimensions      [0 2 -2 0 0 0 0];

internalField   nonuniform List<scalar> 
2304
(
1.63155e-05
1.62786e-05
1.62141e-05
1.6134e-05
1.60497e-05
1.59707e-05
1.59027e-05
1.5848e-05
1.5806e-05
1.57736e-05
1.57466e-05
1.57204e-05
1.56911e-05
1.56563e-05
1.56146e-05
1.55651e-05
1.55066e-05
1.54365e-05
1.5351e-05
1.52447e-05
1.51106e-05
1.49414e-05
1.47296e-05
1.4469e-05
1.41556e-05
1.3788e-05
1.3369e-05
1.29059e-05
1.24039e-05
1.1855e-05
1.12526e-05
1.05921e-05
9.86925e-06
9.08108e-06
8.22833e-06
7.31832e-06
6.36753e-06
5.40263e-06
4.45834e-06
3.57115e-06
2.77191e-06
2.07753e-06
1.49113e-06
1.00864e-06
6.24423e-07
3.33596e-07
1.33609e-07
2.72733e-08
1.41027e-05
1.40658e-05
1.39998e-05
1.39145e-05
1.38197e-05
1.37231e-05
1.36299e-05
1.35428e-05
1.34618e-05
1.33853e-05
1.33105e-05
1.3234e-05
1.31531e-05
1.30663e-05
1.29732e-05
1.28744e-05
1.27705e-05
1.26618e-05
1.25485e-05
1.24254e-05
1.22869e-05
1.21271e-05
1.19392e-05
1.17171e-05
1.1456e-05
1.11526e-05
1.08067e-05
1.04233e-05
1.00089e-05
9.55787e-06
9.06679e-06
8.53266e-06
7.95095e-06
7.31613e-06
6.62373e-06
5.87333e-06
5.07227e-06
4.23918e-06
3.40513e-06
2.60967e-06
1.8948e-06
1.29246e-06
8.17458e-07
4.69478e-07
2.36507e-07
9.90715e-08
4.18823e-08
1.33609e-07
8.71318e-05
8.69007e-05
8.64863e-05
8.59477e-05
8.53425e-05
8.47179e-05
8.41059e-05
8.35229e-05
8.29709e-05
8.24407e-05
8.19162e-05
8.13782e-05
8.08109e-05
8.02053e-05
7.95605e-05
7.88813e-05
7.81738e-05
7.74427e-05
7.66987e-05
7.59049e-05
7.50279e-05
7.40318e-05
7.28747e-05
7.15184e-05
6.99317e-05
6.80914e-05
6.59918e-05
6.36605e-05
6.11403e-05
5.83974e-05
5.54139e-05
5.21725e-05
4.86436e-05
4.47886e-05
4.05719e-05
3.59798e-05
3.10458e-05
2.58759e-05
2.06633e-05
1.56722e-05
1.11749e-05
7.39859e-06
4.46043e-06
2.36869e-06
1.042e-06
3.38159e-07
9.90715e-08
3.33596e-07
0.000311168
0.000310393
0.000309
0.000307184
0.000305135
0.000303007
0.000300909
0.000298894
0.000296971
0.000295111
0.000293262
0.00029136
0.000289353
0.000287213
0.000284937
0.00028254
0.000280044
0.000277466
0.000274835
0.000272035
0.000268958
0.000265486
0.000261476
0.000256802
0.000251357
0.000245057
0.000237867
0.000229844
0.000221102
0.000211548
0.000201129
0.000189778
0.000177385
0.000163806
0.000148897
0.000132578
0.000114919
9.62344e-05
7.71634e-05
5.86515e-05
4.17667e-05
2.74647e-05
1.63053e-05
8.41084e-06
3.51429e-06
1.042e-06
2.36507e-07
6.24423e-07
0.000704828
0.000703327
0.000700619
0.000697063
0.000693008
0.000688745
0.000684475
0.000680305
0.000676255
0.000672279
0.000668283
0.00066415
0.000659787
0.000655139
0.000650203
0.000645012
0.000639613
0.000634039
0.000628315
0.000622261
0.00061568
0.000608347
0.000599993
0.000590367
0.000579251
0.00056646
0.000551861
0.000535424
0.000517214
0.000497143
0.000475108
0.000450933
0.000424329
0.000394918
0.000362285
0.000326079
0.000286186
0.000242974
0.000197544
0.000151905
0.000108874
7.14484e-05
4.18389e-05
2.09865e-05
8.41083e-06
2.36869e-06
4.69478e-07
1.00864e-06
0.00115026
0.00114827
0.00114468
0.0011399
0.00113436
0.00112842
0.00112233
0.00111622
0.00111013
0.00110402
0.00109779
0.00109129
0.00108443
0.00107712
0.00106939
0.00106127
0.00105285
0.00104417
0.00103525
0.00102591
0.00101592
0.00100502
0.000992853
0.000979102
0.000963463
0.000945656
0.000925412
0.000902464
0.000876561
0.0008478
0.000816027
0.000780896
0.000741873
0.000698241
0.000649131
0.000593605
0.000530857
0.000460575
0.00038347
0.000301879
0.000220445
0.000145949
8.50358e-05
4.18389e-05
1.63052e-05
4.46042e-06
8.17456e-07
1.49113e-06
0.00153677
0.00153461
0.00153067
0.00152534
0.00151904
0.0015121
0.00150477
0.0014972
0.00148944
0.00148147
0.0014732
0.00146453
0.00145534
0.00144559
0.0014353
0.00142454
0.00141341
0.00140198
0.0013903
0.00137823
0.00136558
0.0013521
0.00133745
0.00132129
0.00130327
0.00128306
0.00126027
0.00123443
0.00120493
0.00117211
0.00113574
0.00109532
0.00105008
0.000998968
0.000940641
0.00087347
0.000795691
0.000705765
0.000603042
0.000488708
0.000367103
0.000248283
0.000145949
7.14482e-05
2.74646e-05
7.39856e-06
1.29246e-06
2.07753e-06
0.00184024
0.00183807
0.00183405
0.00182852
0.00182184
0.00181429
0.00180608
0.00179736
0.0017882
0.0017786
0.00176851
0.00175784
0.00174653
0.00173455
0.00172194
0.00170878
0.00169521
0.00168133
0.00166721
0.00165281
0.00163797
0.00162253
0.00160617
0.00158857
0.00156937
0.00154818
0.00152456
0.00149805
0.00146827
0.00143514
0.0013983
0.0013571
0.00131058
0.0012574
0.00119581
0.00112364
0.00103834
0.000937249
0.000818246
0.000680895
0.000527261
0.000367103
0.000220445
0.000108873
4.17664e-05
1.11748e-05
1.89479e-06
2.77191e-06
0.0020714
0.00206929
0.00206534
0.0020598
0.00205293
0.00204494
0.00203601
0.00202627
0.00201581
0.00200465
0.0019928
0.00198021
0.00196686
0.00195274
0.00193794
0.00192256
0.00190677
0.00189071
0.00187453
0.00185823
0.00184176
0.00182502
0.00180776
0.00178969
0.00177045
0.00174959
0.00172667
0.00170118
0.00167271
0.00164102
0.00160561
0.00156572
0.0015202
0.00146752
0.00140567
0.00133211
0.00124373
0.001137
0.00100846
0.000856015
0.000680894
0.000488707
0.000301877
0.000151904
5.8651e-05
1.56721e-05
2.60965e-06
3.57115e-06
0.00224433
0.00224231
0.00223847
0.00223296
0.00222595
0.00221757
0.00220795
0.00219722
0.00218547
0.00217278
0.00215918
0.00214469
0.00212934
0.00211317
0.00209628
0.00207885
0.00206108
0.00204316
0.00202528
0.00200755
0.00199
0.00197259
0.00195515
0.00193741
0.001919
0.00189949
0.00187836
0.00185511
0.00182924
0.0018003
0.00176766
0.00173037
0.00168715
0.00163631
0.00157565
0.00150242
0.00141323
0.00130402
0.00117024
0.00100846
0.000818244
0.00060304
0.000383468
0.000197543
7.71626e-05
2.06631e-05
3.40511e-06
4.45833e-06
0.00237272
0.00237078
0.00236702
0.00236152
0.00235433
0.00234552
0.00233519
0.00232343
0.00231038
0.00229613
0.00228079
0.00226442
0.00224712
0.00222898
0.00221016
0.00219088
0.00217139
0.00215195
0.00213279
0.0021141
0.00209599
0.00207848
0.00206145
0.00204466
0.00202775
0.00201024
0.00199159
0.00197122
0.00194854
0.00192292
0.00189354
0.00185932
0.00181886
0.00177033
0.00171144
0.00163933
0.00155048
0.00144054
0.00130402
0.001137
0.000937247
0.000705763
0.000460572
0.000242972
9.62334e-05
2.58757e-05
4.23914e-06
5.40263e-06
0.00246761
0.00246571
0.00246198
0.00245641
0.00244896
0.00243965
0.00242853
0.0024157
0.00240131
0.0023855
0.00236842
0.00235022
0.00233104
0.00231105
0.00229047
0.00226958
0.00224867
0.00222808
0.00220808
0.00218892
0.00217075
0.00215363
0.00213749
0.0021221
0.0021071
0.00209196
0.00207608
0.00205881
0.00203943
0.00201717
0.00199106
0.00195991
0.00192222
0.00187609
0.00181916
0.00174851
0.00166048
0.00155048
0.00141323
0.00124373
0.00103834
0.000795688
0.000530854
0.000286184
0.000114918
3.10455e-05
5.07224e-06
6.36753e-06
0.00253709
0.00253519
0.00253141
0.00252566
0.00251786
0.00250795
0.00249596
0.00248201
0.00246624
0.00244887
0.00243008
0.00241011
0.00238916
0.00236748
0.00234536
0.00232314
0.00230117
0.00227983
0.00225944
0.00224028
0.00222252
0.00220623
0.00219134
0.00217763
0.00216472
0.00215207
0.002139
0.00212475
0.00210853
0.00208942
0.00206637
0.0020381
0.00200304
0.00195925
0.00190434
0.00183534
0.00174851
0.00163933
0.00150242
0.00133211
0.00112364
0.000873467
0.000593603
0.000326077
0.000132577
3.59795e-05
5.8733e-06
7.31833e-06
0.00258696
0.00258501
0.00258109
0.00257506
0.00256679
0.00255618
0.00254325
0.00252811
0.00251096
0.00249203
0.00247159
0.00244994
0.00242737
0.00240421
0.00238081
0.00235759
0.00233494
0.00231328
0.00229296
0.00227424
0.00225732
0.00224221
0.00222884
0.00221697
0.00220619
0.00219594
0.0021855
0.00217406
0.0021607
0.00214444
0.00212416
0.00209852
0.00206592
0.00202439
0.00197152
0.00190434
0.00181916
0.00171144
0.00157565
0.00140567
0.00119581
0.00094064
0.00064913
0.000362283
0.000148896
4.05717e-05
6.62371e-06
8.22837e-06
0.00262135
0.00261929
0.00261515
0.00260874
0.00259988
0.00258847
0.00257452
0.00255816
0.00253961
0.00251917
0.00249717
0.00247397
0.00244997
0.00242557
0.00240122
0.00237735
0.00235444
0.00233289
0.00231308
0.00229522
0.0022795
0.00226587
0.00225422
0.00224427
0.00223556
0.00222752
0.00221944
0.00221045
0.0021996
0.00218586
0.00216804
0.00214481
0.00211451
0.00207516
0.00202439
0.00195925
0.00187609
0.00177033
0.00163631
0.00146752
0.0012574
0.000998968
0.000698242
0.000394918
0.000163806
4.47886e-05
7.31614e-06
9.08115e-06
0.00264321
0.002641
0.00263653
0.00262963
0.00262009
0.00260779
0.00259276
0.00257514
0.00255521
0.00253332
0.00250987
0.00248531
0.00246011
0.00243477
0.0024098
0.0023857
0.00236293
0.00234193
0.00232302
0.0023064
0.00229218
0.00228024
0.00227044
0.00226245
0.00225575
0.00224975
0.00224373
0.00223682
0.0022281
0.00221652
0.00220087
0.0021798
0.00215167
0.00211451
0.00206592
0.00200304
0.00192222
0.00181886
0.00168715
0.0015202
0.00131058
0.00105008
0.000741876
0.00042433
0.000177386
4.86439e-05
7.951e-06
9.86937e-06
0.00265462
0.0026522
0.00264734
0.00263984
0.00262952
0.00261626
0.0026001
0.00258122
0.00255996
0.00253671
0.00251196
0.00248625
0.00246014
0.0024342
0.002409
0.00238508
0.00236288
0.00234282
0.00232518
0.00231006
0.00229754
0.00228751
0.00227971
0.00227371
0.00226897
0.00226484
0.00226059
0.00225544
0.00224848
0.00223872
0.00222497
0.00220586
0.00217979
0.0021448
0.00209852
0.00203809
0.00195991
0.00185932
0.00173037
0.00156572
0.00135711
0.00109533
0.000780902
0.000450937
0.00018978
5.21731e-05
8.53277e-06
1.05923e-05
0.00265706
0.00265439
0.00264906
0.00264088
0.00262969
0.0026154
0.00259809
0.00257798
0.00255545
0.00253098
0.00250515
0.00247857
0.00245188
0.00242572
0.0024007
0.00237737
0.00235615
0.00233736
0.00232125
0.00230792
0.00229736
0.00228936
0.00228359
0.00227956
0.0022767
0.00227432
0.0022717
0.00226805
0.00226259
0.00225436
0.00224226
0.00222496
0.00220087
0.00216804
0.00212415
0.00206636
0.00199106
0.00189354
0.00176766
0.00160562
0.00139831
0.00113575
0.000816037
0.000475116
0.000201132
5.54149e-05
9.06697e-06
1.12529e-05
0.00265155
0.00264859
0.00264272
0.00263379
0.00262168
0.00260633
0.00258786
0.00256657
0.00254289
0.0025174
0.00249074
0.00246362
0.00243674
0.00241079
0.00238639
0.00236406
0.00234411
0.00232692
0.00231267
0.00230137
0.0022929
0.002287
0.00228325
0.00228114
0.00228005
0.00227932
0.00227823
0.00227601
0.00227188
0.002265
0.00225435
0.00223871
0.00221651
0.00218585
0.00214443
0.00208941
0.00201716
0.00192292
0.00180031
0.00164102
0.00143515
0.00117212
0.000847813
0.000497153
0.000211554
5.83989e-05
9.55813e-06
1.18553e-05
0.00263878
0.00263551
0.00262905
0.00261933
0.00260625
0.00258983
0.00257026
0.00254789
0.00252325
0.00249698
0.00246983
0.00244255
0.00241592
0.00239065
0.00236727
0.00234624
0.00232796
0.0023127
0.00230055
0.00229144
0.00228516
0.00228137
0.00227961
0.00227935
0.00227996
0.00228079
0.00228115
0.0022803
0.00227748
0.00227187
0.00226258
0.00224847
0.00222809
0.00219959
0.00216068
0.00210852
0.00203943
0.00194854
0.00182924
0.00167272
0.00146828
0.00120495
0.000876578
0.000517228
0.000221109
6.11424e-05
1.00093e-05
1.24044e-05
0.00261922
0.00261561
0.00260854
0.00259799
0.00258395
0.00256651
0.00254593
0.00252265
0.0024973
0.00247059
0.00244334
0.00241638
0.00239049
0.00236626
0.00234426
0.00232497
0.00230871
0.00229566
0.00228581
0.002279
0.00227495
0.00227326
0.00227345
0.00227496
0.0022772
0.00227954
0.00228131
0.00228181
0.0022803
0.002276
0.00226804
0.00225542
0.0022368
0.00221043
0.00217404
0.00212474
0.0020588
0.00197122
0.00185511
0.00170119
0.00149807
0.00123445
0.000902486
0.000535442
0.000229853
6.36632e-05
1.04238e-05
1.29065e-05
0.00259315
0.00258919
0.00258151
0.00257015
0.0025552
0.00253683
0.00251541
0.00249149
0.00246575
0.00243902
0.00241217
0.00238602
0.00236123
0.00233847
0.0023183
0.00230114
0.00228721
0.00227659
0.00226918
0.00226474
0.00226293
0.00226332
0.00226541
0.00226865
0.00227248
0.00227629
0.00227945
0.0022813
0.00228114
0.00227822
0.00227168
0.00226057
0.00224371
0.00221942
0.00218548
0.00213898
0.00207607
0.00199158
0.00187836
0.00172668
0.00152458
0.00126029
0.000925437
0.000551882
0.000237877
6.5995e-05
1.08073e-05
1.33696e-05
0.00256073
0.00255644
0.00254816
0.00253606
0.00252032
0.00250121
0.00247922
0.002455
0.00242932
0.00240308
0.00237714
0.00235217
0.00232895
0.00230813
0.00229021
0.00227551
0.00226417
0.00225615
0.00225127
0.00224924
0.00224967
0.00225212
0.00225607
0.00226102
0.00226642
0.00227171
0.00227628
0.00227953
0.00228078
0.00227931
0.0022743
0.00226482
0.00224972
0.00222749
0.00219591
0.00215204
0.00209194
0.00201023
0.00189949
0.0017496
0.0015482
0.00128308
0.000945683
0.000566483
0.000245069
6.80951e-05
1.11533e-05
1.37887e-05
0.00252206
0.00251747
0.00250868
0.00249597
0.00247963
0.00246007
0.00243789
0.00241383
0.00238875
0.00236355
0.00233888
0.00231558
0.00229442
0.002276
0.0022607
0.00224876
0.00224019
0.00223489
0.00223261
0.002233
0.00223566
0.00224014
0.00224596
0.00225262
0.00225962
0.00226642
0.00227247
0.00227719
0.00227994
0.00228003
0.00227668
0.00226895
0.00225572
0.00223552
0.00220616
0.0021647
0.00210707
0.00202774
0.001919
0.00177045
0.00156939
0.0013033
0.00096349
0.000579274
0.00025137
6.99355e-05
1.14567e-05
1.41564e-05
0.00247724
0.00247241
0.00246325
0.00245015
0.00243352
0.00241392
0.00239204
0.00236872
0.0023448
0.00232097
0.00229809
0.002277
0.00225839
0.00224275
0.00223039
0.00222141
0.00221577
0.00221326
0.00221361
0.00221643
0.00222133
0.00222786
0.00223556
0.00224397
0.00225262
0.00226102
0.00226864
0.00227495
0.00227933
0.00228112
0.00227954
0.00227368
0.00226241
0.00224423
0.00221694
0.0021776
0.00212208
0.00204465
0.0019374
0.0017897
0.00158859
0.00132131
0.000979129
0.00059039
0.000256815
7.15223e-05
1.17178e-05
1.44699e-05
0.00242646
0.00242152
0.0024122
0.00239902
0.00238253
0.00236341
0.00234242
0.00232037
0.00229797
0.00227605
0.00225551
0.00223712
0.00222147
0.00220896
0.00219978
0.00219393
0.0021913
0.00219165
0.00219465
0.00219993
0.00220708
0.00221568
0.00222532
0.00223556
0.00224596
0.00225607
0.0022654
0.00227343
0.0022796
0.00228323
0.00228356
0.00227968
0.00227041
0.00225419
0.00222881
0.00219131
0.00213747
0.00206143
0.00195514
0.00180777
0.00160618
0.00133747
0.000992877
0.000600014
0.000261488
7.28783e-05
1.19398e-05
1.47304e-05
0.00237014
0.00236523
0.00235604
0.00234321
0.00232738
0.00230931
0.00228972
0.00226931
0.00224893
0.00222948
0.0022118
0.00219656
0.00218424
0.00217511
0.00216928
0.00216669
0.00216714
0.00217038
0.00217606
0.00218382
0.00219328
0.00220403
0.00221568
0.00222786
0.00224014
0.00225211
0.00226331
0.00227325
0.00228136
0.00228698
0.00228934
0.00228748
0.00228021
0.00226584
0.00224218
0.0022062
0.00215361
0.00207846
0.00197258
0.00182502
0.00162253
0.00135211
0.00100504
0.000608365
0.000265496
7.40349e-05
1.21277e-05
1.49421e-05
0.00230898
0.00230429
0.00229558
0.00228355
0.00226892
0.00225231
0.00223446
0.00221618
0.00219839
0.00218194
0.00216757
0.00215584
0.00214712
0.00214159
0.00213925
0.00213998
0.00214358
0.00214975
0.00215816
0.00216846
0.00218028
0.00219328
0.00220708
0.00222133
0.00223566
0.00224967
0.00226293
0.00227494
0.00228515
0.00229289
0.00229734
0.00229752
0.00229215
0.00227946
0.00225729
0.00222249
0.00217073
0.00209598
0.00198999
0.00184176
0.00163798
0.00136559
0.00101594
0.000615694
0.000268966
7.50303e-05
1.22873e-05
1.51112e-05
0.00224397
0.0022397
0.00223181
0.00222095
0.00220774
0.00219291
0.00217727
0.00216167
0.002147
0.00213401
0.00212334
0.00211542
0.00211051
0.0021087
0.00210995
0.00211409
0.00212089
0.00213004
0.00214124
0.00215416
0.00216846
0.00218383
0.00219993
0.00221644
0.002233
0.00224924
0.00226474
0.00227899
0.00229143
0.00230135
0.0023079
0.00231004
0.00230638
0.0022952
0.00227422
0.00224025
0.0021889
0.00211409
0.00200754
0.00185822
0.00165281
0.00137823
0.00102592
0.00062227
0.00027204
7.59064e-05
1.24257e-05
1.52451e-05
0.00217613
0.00217234
0.00216537
0.00215584
0.00214437
0.00213176
0.00211884
0.00210643
0.00209533
0.00208619
0.00207951
0.00207563
0.00207469
0.00207673
0.00208164
0.00208925
0.0020993
0.00211152
0.0021256
0.00214125
0.00215817
0.00217607
0.00219465
0.00221361
0.00223261
0.00225128
0.00226918
0.00228581
0.00230055
0.00231266
0.00232124
0.00232517
0.00232301
0.00231306
0.00229294
0.00225942
0.00220806
0.00213278
0.00202527
0.00187452
0.00166721
0.0013903
0.00103525
0.000628317
0.000274836
7.66992e-05
1.25486e-05
1.53512e-05
0.00210585
0.00210261
0.00209671
0.00208876
0.00207944
0.00206952
0.0020598
0.00205104
0.0020439
0.00203891
0.00203645
0.00203676
0.00203991
0.00204588
0.00205454
0.00206568
0.00207906
0.00209443
0.00211152
0.00213005
0.00214976
0.00217039
0.00219166
0.00221327
0.0022349
0.00225616
0.00227659
0.00229566
0.00231271
0.00232692
0.00233736
0.00234282
0.00234192
0.00233288
0.00231327
0.00227982
0.00222807
0.00215194
0.00204316
0.00189071
0.00168132
0.00140198
0.00104417
0.000634036
0.000277464
7.74422e-05
1.26618e-05
1.54365e-05
0.00203356
0.00203099
0.00202639
0.00202037
0.00201361
0.00200683
0.00200075
0.00199599
0.0019931
0.00199249
0.00199443
0.00199905
0.00200639
0.00201636
0.00202883
0.00204359
0.00206041
0.00207907
0.00209931
0.00212089
0.00214359
0.00216716
0.00219132
0.00221578
0.00224021
0.00226418
0.00228722
0.00230872
0.00232797
0.00234412
0.00235616
0.00236288
0.00236294
0.00235444
0.00233494
0.00230117
0.00224867
0.00217139
0.00206107
0.00190676
0.0016952
0.0014134
0.00105284
0.000639606
0.00028004
7.81726e-05
1.27703e-05
1.55064e-05
0.00195986
0.00195811
0.00195508
0.00195135
0.00194754
0.00194428
0.00194217
0.0019417
0.00194329
0.00194722
0.00195366
0.0019627
0.00197429
0.00198835
0.00200471
0.0020232
0.00204359
0.00206568
0.00208926
0.0021141
0.00214
0.0021667
0.00219395
0.00222143
0.00224878
0.00227553
0.00230116
0.00232499
0.00234626
0.00236408
0.00237738
0.00238509
0.00238571
0.00237736
0.0023576
0.00232314
0.00226958
0.00219088
0.00207885
0.00192255
0.00170877
0.00142453
0.00106126
0.000645001
0.000282533
7.88795e-05
1.28741e-05
1.55648e-05
0.00188547
0.00188469
0.00188348
0.00188235
0.00188182
0.00188238
0.0018845
0.00188852
0.00189472
0.0019033
0.00191434
0.00192786
0.00194379
0.00196201
0.00198238
0.00200472
0.00202883
0.00205454
0.00208165
0.00210996
0.00213926
0.0021693
0.0021998
0.00223041
0.00226073
0.00229024
0.00231833
0.00234429
0.0023673
0.00238642
0.00240072
0.00240902
0.00240982
0.00240123
0.00238083
0.00234537
0.00229048
0.00221017
0.00209628
0.00193793
0.00172193
0.00143529
0.00106937
0.000650191
0.00028493
7.95585e-05
1.29729e-05
1.56142e-05
0.00181115
0.00181146
0.00181229
0.00181401
0.001817
0.0018216
0.0018281
0.00183673
0.00184765
0.00186094
0.00187664
0.0018947
0.00191503
0.00193752
0.00196202
0.00198835
0.00201637
0.00204589
0.00207674
0.00210872
0.0021416
0.00217513
0.00220899
0.00224277
0.00227602
0.00230815
0.0023385
0.00236629
0.00239067
0.00241081
0.00242574
0.00243423
0.00243479
0.00242559
0.00240423
0.00236749
0.00231106
0.00222899
0.00211317
0.00195274
0.00173455
0.00144558
0.00107711
0.000655127
0.000287206
8.02031e-05
1.30659e-05
1.56559e-05
0.00173766
0.00173915
0.00174218
0.00174693
0.00175358
0.00176233
0.0017733
0.00178659
0.00180225
0.0018203
0.00184069
0.00186335
0.00188817
0.00191504
0.00194379
0.0019743
0.0020064
0.00203993
0.0020747
0.00211053
0.00214714
0.00218426
0.0022215
0.00225841
0.00229445
0.00232898
0.00236126
0.00239052
0.00241596
0.00243677
0.00245191
0.00246017
0.00246014
0.00244999
0.00242739
0.00238917
0.00233105
0.00224713
0.00212934
0.00196686
0.00174653
0.00145533
0.00108441
0.000659775
0.000289347
8.08088e-05
1.31528e-05
1.56907e-05
0.00166574
0.00166848
0.00167379
0.00168163
0.00169202
0.00170493
0.00172038
0.00173832
0.00175873
0.00178153
0.00180664
0.00183395
0.00186335
0.0018947
0.00192787
0.0019627
0.00199906
0.00203677
0.00207564
0.00211543
0.00215587
0.00219658
0.00223714
0.00227702
0.00231561
0.0023522
0.00238605
0.00241641
0.00244258
0.00246365
0.0024786
0.00248628
0.00248533
0.002474
0.00244996
0.00241013
0.00235023
0.00226443
0.0021447
0.00198021
0.00175784
0.00146452
0.00109128
0.00066414
0.000291354
8.13764e-05
1.32337e-05
1.572e-05
0.0015961
0.0016001
0.0016077
0.00161864
0.00163271
0.00164975
0.00166961
0.00169215
0.00171725
0.00174478
0.00177462
0.00180664
0.00184069
0.00187664
0.00191435
0.00195367
0.00199444
0.00203647
0.00207953
0.00212336
0.00216759
0.00221182
0.00225553
0.00229812
0.0023389
0.00237717
0.00241219
0.00244337
0.00246986
0.00249077
0.00250517
0.00251199
0.00250989
0.00249719
0.00247161
0.0024301
0.00236843
0.0022808
0.00215918
0.0019928
0.0017685
0.0014732
0.00109778
0.000668274
0.000293257
8.19148e-05
1.33102e-05
1.57463e-05
0.0015294
0.00153463
0.00154447
0.00155841
0.00157607
0.0015971
0.00162125
0.00164828
0.00167799
0.00171022
0.00174478
0.00178153
0.0018203
0.00186095
0.00190331
0.00194723
0.00199251
0.00203893
0.00208621
0.00213403
0.00218196
0.0022295
0.00227607
0.002321
0.00236357
0.0024031
0.00243905
0.00247062
0.00249701
0.00251743
0.002531
0.00253673
0.00253334
0.00251918
0.00249204
0.00244888
0.00238551
0.00229614
0.00217278
0.00200465
0.0017786
0.00148147
0.00110402
0.000672274
0.000295108
8.24399e-05
1.33852e-05
1.57734e-05
0.00146624
0.00147264
0.0014846
0.0015014
0.00152246
0.00154731
0.00157557
0.00160694
0.00164115
0.00167799
0.00171725
0.00175873
0.00180226
0.00184766
0.00189473
0.0019433
0.00199312
0.00204391
0.00209535
0.00214701
0.00219841
0.00224895
0.00229799
0.00234481
0.00238877
0.00242934
0.00246577
0.00249731
0.00252327
0.00254291
0.00255546
0.00255997
0.00255523
0.00253962
0.00251097
0.00246625
0.00240131
0.00231038
0.00218547
0.00201581
0.0017882
0.00148944
0.00111013
0.000676253
0.00029697
8.29705e-05
1.34617e-05
1.58059e-05
0.00140719
0.00141466
0.00142858
0.00144803
0.00147227
0.0015007
0.00153286
0.00156838
0.00160694
0.00164828
0.00169215
0.00173833
0.0017866
0.00183674
0.00188853
0.00194171
0.001996
0.00205106
0.00210645
0.00216169
0.0022162
0.00226933
0.00232039
0.00236873
0.00241385
0.00245501
0.0024915
0.00252267
0.0025479
0.00256658
0.00257799
0.00258123
0.00257515
0.00255817
0.00252812
0.00248201
0.0024157
0.00232343
0.00219722
0.00202627
0.00179735
0.00149719
0.00111621
0.000680304
0.000298894
8.35228e-05
1.35428e-05
1.5848e-05
0.00135278
0.00136121
0.00137689
0.00139874
0.00142589
0.00145763
0.00149343
0.00153286
0.00157557
0.00162125
0.00166961
0.00172039
0.00177331
0.00182811
0.00188451
0.00194218
0.00200076
0.00205982
0.00211885
0.00217728
0.00223447
0.00228973
0.00234243
0.00239205
0.0024379
0.00247923
0.00251542
0.00254594
0.00257027
0.00258787
0.00259809
0.0026001
0.00259276
0.00257453
0.00254325
0.00249596
0.00242853
0.00233518
0.00220795
0.00203601
0.00180607
0.00150477
0.00112233
0.000684475
0.000300909
8.4106e-05
1.36299e-05
1.59027e-05
0.00130355
0.00131282
0.00133003
0.001354
0.00138375
0.00141849
0.00145763
0.00150071
0.00154731
0.00159711
0.00164976
0.00170494
0.00176234
0.00182161
0.00188239
0.00194429
0.00200684
0.00206953
0.00213177
0.00219292
0.00225232
0.00230932
0.00236341
0.00241393
0.00246007
0.00250121
0.00253684
0.00256651
0.00258983
0.00260633
0.0026154
0.00261626
0.00260779
0.00258847
0.00255618
0.00250795
0.00243965
0.00234552
0.00221757
0.00204494
0.00181428
0.0015121
0.00112842
0.000688746
0.000303008
8.47181e-05
1.37231e-05
1.59708e-05
0.00126013
0.00127009
0.00128858
0.00131436
0.00134636
0.00138375
0.00142589
0.00147227
0.00152247
0.00157608
0.00163272
0.00169203
0.00175359
0.00181701
0.00188183
0.00194755
0.00201362
0.00207945
0.00214438
0.00220775
0.00226893
0.00232739
0.00238254
0.00243353
0.00247963
0.00252032
0.0025552
0.00258395
0.00260625
0.00262168
0.00262969
0.00262951
0.00262008
0.00259988
0.00256678
0.00251785
0.00244896
0.00235432
0.00222595
0.00205293
0.00182184
0.00151904
0.00113436
0.000693009
0.000305135
8.53426e-05
1.38197e-05
1.60498e-05
0.00122325
0.00123374
0.00125325
0.00128049
0.00131436
0.00135401
0.00139875
0.00144804
0.00150141
0.00155842
0.00161865
0.00168164
0.00174694
0.00181402
0.00188236
0.00195136
0.00202038
0.00208877
0.00215585
0.00222095
0.00228356
0.00234321
0.00239903
0.00245015
0.00249597
0.00253606
0.00257015
0.00259799
0.00261932
0.00263379
0.00264088
0.00263984
0.00262962
0.00260873
0.00257506
0.00252566
0.0024564
0.00236151
0.00223296
0.0020598
0.00182852
0.00152534
0.0011399
0.000697062
0.000307184
8.59476e-05
1.39145e-05
1.6134e-05
0.00119379
0.00120465
0.00122491
0.00125325
0.00128859
0.00133003
0.00137689
0.00142858
0.0014846
0.00154447
0.00160771
0.0016738
0.00174219
0.0018123
0.00188349
0.00195509
0.0020264
0.00209672
0.00216538
0.00223182
0.00229559
0.00235604
0.0024122
0.00246326
0.00250868
0.00254816
0.0025815
0.00260854
0.00262905
0.00264271
0.00264905
0.00264733
0.00263652
0.00261514
0.00258108
0.0025314
0.00246197
0.00236701
0.00223846
0.00206533
0.00183404
0.00153066
0.00114467
0.000700616
0.000308999
8.6486e-05
1.39997e-05
1.62141e-05
0.00117282
0.00118392
0.00120465
0.00123374
0.00127009
0.00131282
0.00136122
0.00141467
0.00147265
0.00153464
0.00160011
0.00166849
0.00173916
0.00181147
0.0018847
0.00195812
0.002031
0.00210262
0.00217235
0.00223971
0.00230429
0.00236523
0.00242152
0.00247241
0.00251747
0.00255644
0.00258919
0.00261561
0.0026355
0.00264859
0.00265439
0.0026522
0.00264099
0.00261929
0.002585
0.00253518
0.0024657
0.00237077
0.00224231
0.00206929
0.00183806
0.00153461
0.00114827
0.000703324
0.000310391
8.69003e-05
1.40657e-05
1.62785e-05
0.0011616
0.00117282
0.00119379
0.00122325
0.00126013
0.00130355
0.00135278
0.0014072
0.00146625
0.00152941
0.00159611
0.00166575
0.00173767
0.00181116
0.00188548
0.00195987
0.00203357
0.00210586
0.00217614
0.00224398
0.00230898
0.00237014
0.00242646
0.00247723
0.00252206
0.00256073
0.00259315
0.00261922
0.00263878
0.00265154
0.00265706
0.00265462
0.0026432
0.00262135
0.00258695
0.00253708
0.0024676
0.00237271
0.00224432
0.0020714
0.00184024
0.00153677
0.00115025
0.000704823
0.000311165
8.71311e-05
1.41026e-05
1.63154e-05
)
;

boundaryField
{
    inlet
    {
        type            cyclic;
    }
    outlet
    {
        type            cyclic;
    }
    walls
    {
        type            kLowReWallFunction;
        value           nonuniform List<scalar> 
96
(
4.29639e-15
1.03079e-13
6.42408e-13
2.25006e-12
5.86917e-12
1.28233e-11
2.48841e-11
4.42841e-11
7.34792e-11
1.14487e-10
1.68069e-10
2.33397e-10
3.08223e-10
3.89553e-10
4.74384e-10
5.60206e-10
6.45177e-10
7.28051e-10
8.07991e-10
8.84468e-10
9.57422e-10
1.02728e-09
1.0926e-09
1.15157e-09
1.20306e-09
1.24671e-09
1.28276e-09
1.31192e-09
1.33524e-09
1.35386e-09
1.36893e-09
1.38134e-09
1.39174e-09
1.40058e-09
1.40806e-09
1.41431e-09
1.41959e-09
1.42433e-09
1.42924e-09
1.43513e-09
1.44278e-09
1.45274e-09
1.46519e-09
1.4797e-09
1.49524e-09
1.51011e-09
1.52212e-09
1.52902e-09
1.52903e-09
1.52213e-09
1.51011e-09
1.49524e-09
1.47969e-09
1.46517e-09
1.45274e-09
1.44278e-09
1.43515e-09
1.42929e-09
1.4244e-09
1.41966e-09
1.4144e-09
1.40814e-09
1.40065e-09
1.3918e-09
1.38136e-09
1.36892e-09
1.35382e-09
1.33516e-09
1.31181e-09
1.28263e-09
1.24657e-09
1.20292e-09
1.15144e-09
1.09248e-09
1.02718e-09
9.57338e-10
8.84404e-10
8.07944e-10
7.28018e-10
6.45155e-10
5.60193e-10
4.74377e-10
3.8955e-10
3.08222e-10
2.33397e-10
1.6807e-10
1.14487e-10
7.34794e-11
4.42841e-11
2.48842e-11
1.28233e-11
5.86918e-12
2.25006e-12
6.42408e-13
1.03079e-13
4.29639e-15
)
;
    }
    symPlanes
    {
        type            symmetry;
    }
}


// ************************************************************************* //
