/*--------------------------------*- C++ -*----------------------------------*\
| =========                 |                                                 |
| \\      /  F ield         | OpenFOAM: The Open Source CFD Toolbox           |
|  \\    /   O peration     | Version:  2412                                  |
|   \\  /    A nd           | Website:  www.openfoam.com                      |
|    \\/     M anipulation  |                                                 |
\*---------------------------------------------------------------------------*/
FoamFile
{
    version     2.0;
    format      ascii;
    arch        "LSB;label=32;scalar=64";
    class       volScalarField;
    location    "2130";
    object      nut;
}
// * * * * * * * * * * * * * * * * * * * * * * * * * * * * * * * * * * * * * //

dimensions      [0 2 -1 0 0 0 0];

internalField   nonuniform List<scalar> 
2304
(
6.61744e-09
6.60248e-09
6.57633e-09
6.54381e-09
6.50965e-09
6.4776e-09
6.45001e-09
6.42785e-09
6.41081e-09
6.39767e-09
6.38671e-09
6.37607e-09
6.36421e-09
6.3501e-09
6.33318e-09
6.31309e-09
6.28936e-09
6.26093e-09
6.22625e-09
6.18314e-09
6.12876e-09
6.06012e-09
5.97421e-09
5.86854e-09
5.74142e-09
5.5923e-09
5.42237e-09
5.23455e-09
5.03096e-09
4.8083e-09
4.56399e-09
4.2961e-09
4.00292e-09
3.68324e-09
3.33737e-09
2.96828e-09
2.58264e-09
2.19128e-09
1.80828e-09
1.44845e-09
1.12428e-09
8.42638e-10
6.04798e-10
4.09103e-10
2.53264e-10
1.35306e-10
5.41913e-11
1.1062e-11
3.38808e-08
3.37922e-08
3.3634e-08
3.34297e-08
3.32024e-08
3.29708e-08
3.27475e-08
3.25387e-08
3.23448e-08
3.21618e-08
3.19829e-08
3.18e-08
3.16069e-08
3.13995e-08
3.11773e-08
3.09414e-08
3.06937e-08
3.04347e-08
3.0164e-08
2.98699e-08
2.95391e-08
2.91575e-08
2.87085e-08
2.81777e-08
2.75533e-08
2.68272e-08
2.59989e-08
2.50806e-08
2.40884e-08
2.30081e-08
2.18314e-08
2.05509e-08
1.91554e-08
1.76313e-08
1.59673e-08
1.41621e-08
1.22332e-08
1.02254e-08
8.21407e-09
6.29344e-09
4.5687e-09
3.11679e-09
1.97193e-09
1.1324e-09
5.68562e-10
2.31071e-10
7.48947e-11
5.41913e-11
6.18159e-07
6.1657e-07
6.13717e-07
6.10001e-07
6.05816e-07
6.01485e-07
5.97227e-07
5.93155e-07
5.89285e-07
5.85558e-07
5.81865e-07
5.78074e-07
5.7408e-07
5.69823e-07
5.65297e-07
5.60538e-07
5.55591e-07
5.50495e-07
5.45385e-07
5.39957e-07
5.33975e-07
5.2719e-07
5.193e-07
5.10033e-07
4.99157e-07
4.86497e-07
4.72001e-07
4.55876e-07
4.38455e-07
4.19449e-07
3.9871e-07
3.76094e-07
3.51362e-07
3.242e-07
2.94304e-07
2.61532e-07
2.2609e-07
1.88743e-07
1.50928e-07
1.14701e-07
8.19329e-08
5.42954e-08
3.26776e-08
1.71494e-08
7.12688e-09
1.79972e-09
2.31071e-10
1.35306e-10
4.38498e-06
4.37495e-06
4.35687e-06
4.33318e-06
4.30625e-06
4.27807e-06
4.25003e-06
4.22285e-06
4.1967e-06
4.17126e-06
4.1459e-06
4.11985e-06
4.09247e-06
4.06343e-06
4.03273e-06
4.00067e-06
3.9676e-06
3.93388e-06
3.9005e-06
3.86551e-06
3.82741e-06
3.78461e-06
3.7351e-06
3.677e-06
3.60864e-06
3.52866e-06
3.4364e-06
3.33283e-06
3.2199e-06
3.09553e-06
2.95847e-06
2.80736e-06
2.63999e-06
2.45345e-06
2.24468e-06
2.0115e-06
1.75414e-06
1.47705e-06
1.19026e-06
9.09374e-07
6.50131e-07
4.27228e-07
2.49651e-07
1.20739e-07
4.10072e-08
7.12688e-09
5.68561e-10
2.53264e-10
1.55618e-05
1.5533e-05
1.54806e-05
1.54111e-05
1.53309e-05
1.52454e-05
1.51584e-05
1.50722e-05
1.49877e-05
1.49042e-05
1.48204e-05
1.47343e-05
1.46444e-05
1.45499e-05
1.44514e-05
1.435e-05
1.42472e-05
1.41445e-05
1.40446e-05
1.39426e-05
1.38344e-05
1.37153e-05
1.35791e-05
1.34195e-05
1.32311e-05
1.30086e-05
1.27485e-05
1.24512e-05
1.21199e-05
1.17482e-05
1.13306e-05
1.086e-05
1.03258e-05
9.71352e-06
9.00715e-06
8.19192e-06
7.26001e-06
6.21801e-06
5.09428e-06
3.94239e-06
2.83115e-06
1.8349e-06
1.01756e-06
4.35394e-07
1.20739e-07
1.71494e-08
1.13239e-09
4.09102e-10
3.51478e-05
3.50964e-05
3.50019e-05
3.48743e-05
3.47238e-05
3.45594e-05
3.43877e-05
3.42134e-05
3.40387e-05
3.38636e-05
3.36866e-05
3.35056e-05
3.33186e-05
3.31255e-05
3.29281e-05
3.27299e-05
3.25351e-05
3.23477e-05
3.21715e-05
3.20008e-05
3.18283e-05
3.16455e-05
3.14404e-05
3.12006e-05
3.09141e-05
3.05697e-05
3.01585e-05
2.96742e-05
2.91102e-05
2.8459e-05
2.77055e-05
2.68277e-05
2.57943e-05
2.45641e-05
2.30895e-05
2.13215e-05
1.92212e-05
1.67746e-05
1.4011e-05
1.10184e-05
7.957e-06
5.06589e-06
2.64838e-06
1.01756e-06
2.4965e-07
3.26775e-08
1.97193e-09
6.04798e-10
6.01185e-05
6.0049e-05
5.99174e-05
5.97339e-05
5.9509e-05
5.92526e-05
5.89736e-05
5.86794e-05
5.83751e-05
5.80641e-05
5.77474e-05
5.74254e-05
5.70992e-05
5.67724e-05
5.64517e-05
5.61466e-05
5.58674e-05
5.56226e-05
5.54174e-05
5.52509e-05
5.51158e-05
5.50012e-05
5.48903e-05
5.47646e-05
5.46053e-05
5.43939e-05
5.41156e-05
5.37241e-05
5.30176e-05
5.21623e-05
5.11245e-05
4.98551e-05
4.82883e-05
4.63421e-05
4.39228e-05
4.09332e-05
3.72871e-05
3.2929e-05
2.78593e-05
2.2162e-05
1.60634e-05
1.00843e-05
5.06588e-06
1.83489e-06
4.27226e-07
5.42951e-08
3.11678e-09
8.42637e-10
8.84063e-05
8.83077e-05
8.81201e-05
8.78563e-05
8.75302e-05
8.71554e-05
8.67449e-05
8.631e-05
8.58596e-05
8.53999e-05
8.49348e-05
8.44673e-05
8.40018e-05
8.35463e-05
8.31137e-05
8.27199e-05
8.23815e-05
8.21115e-05
8.19175e-05
8.1799e-05
8.17456e-05
8.17396e-05
8.17551e-05
8.17633e-05
8.17347e-05
8.16414e-05
8.14585e-05
8.11619e-05
8.07082e-05
8.00195e-05
7.90017e-05
7.75341e-05
7.54713e-05
7.26542e-05
6.8931e-05
6.41836e-05
5.83569e-05
5.14875e-05
4.37237e-05
3.52888e-05
2.57288e-05
1.60633e-05
7.95696e-06
2.83113e-06
6.50126e-07
8.19323e-08
4.56867e-09
1.12428e-09
0.000120519
0.000120381
0.00012012
0.000119753
0.000119301
0.000118782
0.000118215
0.000117617
0.000117002
0.00011638
0.000115758
0.000115143
0.000114544
0.000113975
0.000113456
0.000113013
0.000112667
0.000112437
0.000112331
0.000112347
0.000112467
0.00011266
0.000112887
0.0001131
0.000113254
0.000113304
0.000113201
0.000112893
0.00011231
0.000111309
0.000109738
0.000107424
0.000104182
9.98332e-05
9.4226e-05
8.72561e-05
7.88931e-05
6.92199e-05
5.848e-05
4.70425e-05
3.52887e-05
2.21619e-05
1.10183e-05
3.94236e-06
9.09366e-07
1.147e-07
6.29339e-09
1.44844e-09
0.000156202
0.000156013
0.000155659
0.000155164
0.000154558
0.000153868
0.000153122
0.000152342
0.000151549
0.000150758
0.00014998
0.000149228
0.000148517
0.00014787
0.000147316
0.000146889
0.000146618
0.000146524
0.000146615
0.000146881
0.000147288
0.000147786
0.000148307
0.000148779
0.000149126
0.00014927
0.000149126
0.000148587
0.000147527
0.000145789
0.000143192
0.000139541
0.000134642
0.000128325
0.000120453
0.000110945
9.97895e-05
8.70869e-05
7.3205e-05
5.84799e-05
4.37235e-05
2.78591e-05
1.40109e-05
5.09423e-06
1.19025e-06
1.50927e-07
8.214e-09
1.80828e-09
0.000194831
0.000194581
0.000194111
0.000193461
0.000192672
0.000191785
0.000190837
0.000189861
0.000188884
0.000187927
0.00018701
0.00018615
0.000185372
0.000184709
0.0001842
0.000183888
0.000183807
0.000183978
0.000184403
0.000185054
0.000185875
0.000186778
0.000187653
0.000188381
0.000188843
0.00018892
0.000188488
0.000187398
0.000185485
0.000182588
0.000178519
0.000173079
0.000166086
0.000157384
0.000146871
0.000134539
0.000120514
0.000104884
8.70867e-05
6.92197e-05
5.14873e-05
3.29287e-05
1.67744e-05
6.21794e-06
1.47703e-06
1.88741e-07
1.02253e-08
2.19128e-09
0.000235882
0.000235557
0.000234951
0.00023412
0.000233124
0.000232021
0.00023086
0.000229686
0.000228535
0.000227437
0.000226418
0.000225506
0.000224735
0.000224147
0.000223793
0.000223722
0.000223969
0.000224549
0.000225447
0.000226607
0.000227935
0.000229295
0.00023051
0.000231399
0.000231784
0.000231503
0.000230413
0.000228358
0.000225165
0.000220668
0.000214681
0.000207017
0.000197508
0.000186023
0.000172496
0.000156987
0.000139759
0.000120514
9.97892e-05
7.88928e-05
5.83566e-05
3.72867e-05
1.9221e-05
7.25993e-06
1.75412e-06
2.26088e-07
1.22331e-08
2.58264e-09
0.000278941
0.000278528
0.000277766
0.000276734
0.000275515
0.000274184
0.00027281
0.00027145
0.000270151
0.000268954
0.000267895
0.000267011
0.000266346
0.000265954
0.000265891
0.00026621
0.000266937
0.000268071
0.000269567
0.00027133
0.000273207
0.000275024
0.000276509
0.000277396
0.000277439
0.000276427
0.000274223
0.00027072
0.000265764
0.000259191
0.000250831
0.000240518
0.00022811
0.000213515
0.000196724
0.000177879
0.000156987
0.000134539
0.000110945
8.72556e-05
6.41832e-05
4.09329e-05
2.13213e-05
8.19184e-06
2.01148e-06
2.6153e-07
1.4162e-08
2.96828e-09
0.000323638
0.000323129
0.000322198
0.000320952
0.0003195
0.000317942
0.000316366
0.000314847
0.000313446
0.000312214
0.0003112
0.00031045
0.000310021
0.000309971
0.000310359
0.00031123
0.00031259
0.000314406
0.000316583
0.000319004
0.000321396
0.000323571
0.000325172
0.000325849
0.000325283
0.000323187
0.000319389
0.000313898
0.000306658
0.000297519
0.000286333
0.000272967
0.00025732
0.000239353
0.000219131
0.000196724
0.000172496
0.000146871
0.000120452
9.42256e-05
6.89306e-05
4.39225e-05
2.30893e-05
9.00708e-06
2.24466e-06
2.94303e-07
1.59673e-08
3.33738e-09
0.000369633
0.000369022
0.000367916
0.000366452
0.00036477
0.000363
0.000361252
0.000359621
0.000358183
0.000357006
0.000356149
0.000355672
0.000355638
0.000356104
0.000357117
0.000358702
0.000360832
0.000363435
0.000366317
0.000369346
0.000372101
0.000374246
0.00037556
0.00037569
0.000374282
0.000370964
0.000365358
0.000357401
0.000347333
0.000335131
0.000320676
0.000303883
0.000284708
0.000263172
0.000239353
0.000213515
0.000186022
0.000157384
0.000128325
9.98328e-05
7.26538e-05
4.63418e-05
2.4564e-05
9.71349e-06
2.45345e-06
3.24199e-07
1.76313e-08
3.68327e-09
0.000416621
0.000415909
0.000414631
0.000412958
0.000411067
0.000409117
0.000407246
0.000405572
0.000404191
0.000403188
0.000402636
0.000402605
0.000403156
0.000404334
0.000406156
0.000408595
0.000411621
0.000415047
0.000418548
0.000421746
0.000424434
0.000425366
0.000425313
0.000424185
0.000421695
0.000417546
0.000410978
0.000400591
0.000387311
0.000371584
0.000353456
0.000332905
0.000309966
0.000284708
0.000257321
0.000228111
0.000197508
0.000166086
0.000134642
0.000104181
7.5471e-05
4.82882e-05
2.57942e-05
1.03258e-05
2.64e-06
3.51364e-07
1.91555e-08
4.00296e-09
0.00046434
0.000463534
0.000462098
0.000460242
0.00045818
0.000456104
0.000454187
0.000452569
0.000451373
0.000450702
0.000450642
0.000451267
0.000452623
0.000454724
0.000457552
0.000460973
0.000464928
0.000468877
0.00047256
0.000474271
0.00047521
0.000475372
0.000474456
0.000472146
0.000468118
0.00046206
0.000453676
0.000442217
0.000425957
0.000406464
0.000384346
0.000359787
0.000332906
0.000303884
0.000272968
0.000240519
0.000207018
0.00017308
0.000139541
0.000107424
7.7534e-05
4.98552e-05
2.68278e-05
1.08601e-05
2.80738e-06
3.76098e-07
2.05512e-08
4.29618e-09
0.000512556
0.000511672
0.000510109
0.000508115
0.000505943
0.000503827
0.000501971
0.00050055
0.000499711
0.000499577
0.000500244
0.00050177
0.000504169
0.000507436
0.00051145
0.000515893
0.000520275
0.000523278
0.000524877
0.000525981
0.000526314
0.000525572
0.000523425
0.000519528
0.000513542
0.000505145
0.000494054
0.000480037
0.000462142
0.000439247
0.000413064
0.000384347
0.000353458
0.000320678
0.000286334
0.000250832
0.000214681
0.000178519
0.000143193
0.000109738
7.90019e-05
5.11248e-05
2.77057e-05
1.13307e-05
2.95852e-06
3.98717e-07
2.18319e-08
4.56409e-09
0.00056107
0.000560131
0.000558488
0.000556426
0.000554241
0.000552206
0.000550568
0.000549535
0.000549282
0.000549948
0.000551617
0.000554316
0.000558048
0.000562683
0.000567713
0.000572645
0.000574641
0.000576362
0.000577592
0.00057806
0.000577458
0.000575446
0.000571668
0.000565766
0.000557396
0.000546249
0.00053207
0.000514677
0.000493968
0.000468998
0.00043925
0.000406468
0.000371588
0.000335135
0.000297522
0.000259193
0.000220669
0.00018259
0.00014579
0.00011131
8.00199e-05
5.21627e-05
2.84593e-05
1.17484e-05
3.0956e-06
4.19459e-07
2.30087e-08
4.80844e-09
0.000609712
0.000608755
0.000607101
0.000605075
0.000603013
0.000601236
0.000600032
0.000599647
0.000600278
0.00060206
0.000605043
0.000609262
0.000614573
0.000620245
0.000624679
0.000626778
0.000628616
0.000629957
0.000630535
0.000630044
0.000628141
0.000624463
0.000618639
0.000610309
0.000599145
0.000584872
0.000567286
0.00054627
0.000521807
0.000493969
0.000462146
0.000425964
0.000387318
0.00034734
0.000306663
0.000265767
0.000225168
0.000185487
0.000147528
0.000112311
8.07088e-05
5.30182e-05
2.91107e-05
1.21202e-05
3.22e-06
4.38469e-07
2.40893e-08
5.03114e-09
0.000658362
0.000657438
0.000655874
0.00065403
0.000652287
0.000651012
0.000650538
0.000651143
0.000653023
0.000656276
0.000660984
0.000667014
0.000673409
0.000677362
0.000679582
0.000681528
0.000682974
0.000683653
0.000683257
0.000681444
0.000677848
0.000672091
0.000663801
0.000652636
0.000638305
0.000620586
0.000599345
0.000574551
0.000546271
0.000514679
0.00048004
0.000442226
0.000400602
0.00035741
0.000313905
0.000270725
0.000228361
0.0001874
0.000148589
0.000112894
8.11628e-05
5.37249e-05
2.96748e-05
1.24516e-05
3.33295e-06
4.55895e-07
2.50817e-08
5.23478e-09
0.000706979
0.00070616
0.000704826
0.000703369
0.000702215
0.000701775
0.000702418
0.00070443
0.000707985
0.000713167
0.000719929
0.00072709
0.000730575
0.000732916
0.00073498
0.000736536
0.000737314
0.000737009
0.000735279
0.000731755
0.000726055
0.000717801
0.000706641
0.000692271
0.000674454
0.000653041
0.000627986
0.000599346
0.000567288
0.000532074
0.000494058
0.00045368
0.00041099
0.000365371
0.000319399
0.00027423
0.000230418
0.000188492
0.000149129
0.000113202
8.14596e-05
5.41164e-05
3.01592e-05
1.27489e-05
3.43655e-06
4.72023e-07
2.60002e-08
5.42264e-09
0.000755658
0.000755046
0.000754134
0.000753345
0.000753139
0.000753959
0.000756186
0.00076009
0.000765828
0.000773279
0.000781209
0.000784217
0.000786668
0.000788852
0.000790525
0.000791412
0.000791203
0.000789558
0.000786105
0.00078046
0.000772242
0.000761092
0.000746694
0.0007288
0.00070725
0.000681982
0.000653042
0.000620588
0.000584875
0.000546253
0.00050515
0.000462065
0.000417551
0.000370979
0.0003232
0.000276436
0.000231509
0.000188924
0.000149273
0.000113305
8.16427e-05
5.43948e-05
3.05705e-05
1.3009e-05
3.52883e-06
4.86522e-07
2.68287e-08
5.59262e-09
0.000804736
0.000804468
0.000804232
0.000804471
0.000805655
0.000808236
0.000812586
0.000818902
0.000827018
0.000835667
0.000838213
0.000840746
0.000843037
0.000844828
0.000845832
0.000845732
0.000844181
0.000840809
0.000835227
0.000827051
0.000815917
0.000801502
0.00078355
0.000761888
0.000736443
0.000707251
0.000674456
0.000638308
0.000599149
0.000557401
0.000513548
0.000468124
0.000421701
0.000374298
0.000325298
0.000277449
0.000231791
0.000188847
0.000149129
0.000113256
8.1736e-05
5.46061e-05
3.09148e-05
1.32316e-05
3.60881e-06
4.99184e-07
2.75548e-08
5.74176e-09
0.000854916
0.000855168
0.000855921
0.000857605
0.000860664
0.000865585
0.000872541
0.000881243
0.00088999
0.000892514
0.000895083
0.000897451
0.000899346
0.000900467
0.000900485
0.000899044
0.000895767
0.000890263
0.000882144
0.000871041
0.000856625
0.000838634
0.000816885
0.000791295
0.000761889
0.000728801
0.000692273
0.000652639
0.000610313
0.000565771
0.000519534
0.000472152
0.000424191
0.000375706
0.000325864
0.000277407
0.000231406
0.000188386
0.000148782
0.000113102
8.17645e-05
5.47654e-05
3.12013e-05
1.342e-05
3.67716e-06
5.1006e-07
2.81793e-08
5.86889e-09
0.000907394
0.00090837
0.000910449
0.000913992
0.000919456
0.000927073
0.000936202
0.000944666
0.000947101
0.000949641
0.000952036
0.000954003
0.000955226
0.000955361
0.000954039
0.000950875
0.000945469
0.000937428
0.000926377
0.000911984
0.000893977
0.000872169
0.000846466
0.000816885
0.000783551
0.000746695
0.000706644
0.000663804
0.000618643
0.000571673
0.00052343
0.000474462
0.000425318
0.000375576
0.000325187
0.00027652
0.000230517
0.000187657
0.00014831
0.000112888
8.17561e-05
5.4891e-05
3.14411e-05
1.35795e-05
3.73525e-06
5.19325e-07
2.871e-08
5.97455e-09
0.000963874
0.000965797
0.000969541
0.00097519
0.000983162
0.000992326
0.000999699
0.00100197
0.00100441
0.00100676
0.00100875
0.00101004
0.00101027
0.00100907
0.00100603
0.00100074
0.000992801
0.00098183
0.000967488
0.000949497
0.000927662
0.000901884
0.000872169
0.000838634
0.000801503
0.000761093
0.000717803
0.000672094
0.000624467
0.00057545
0.000525577
0.000475378
0.000425371
0.000374261
0.000323585
0.000275034
0.000229301
0.000186782
0.000147788
0.000112662
8.17403e-05
5.50017e-05
3.16461e-05
1.37156e-05
3.78474e-06
5.27211e-07
2.91587e-08
6.06043e-09
0.00102635
0.00102922
0.00103455
0.00104175
0.0010503
0.00105511
0.00105715
0.0010594
0.00106163
0.00106356
0.00106486
0.00106516
0.00106405
0.00106114
0.00105598
0.00104816
0.0010373
0.00102304
0.0010051
0.000983279
0.000957465
0.000927662
0.000893977
0.000856625
0.000815917
0.000772243
0.000726056
0.000677851
0.000628145
0.000577462
0.000526318
0.000475214
0.000424449
0.000372114
0.000321407
0.000273215
0.00022794
0.000185878
0.00014729
0.000112468
8.1746e-05
5.51161e-05
3.18287e-05
1.38347e-05
3.82751e-06
5.33991e-07
2.95401e-08
6.12901e-09
0.00109526
0.00109812
0.00110343
0.00110956
0.00111094
0.00111267
0.00111464
0.00111666
0.00111845
0.00111968
0.00111998
0.00111893
0.00111612
0.00111109
0.00110341
0.00109268
0.00107854
0.00106069
0.00103892
0.00101312
0.000983278
0.000949496
0.000911983
0.00087104
0.000827051
0.00078046
0.000731756
0.000681446
0.000630047
0.000578063
0.000525985
0.000474275
0.000421759
0.000369358
0.000319013
0.000271336
0.000226611
0.000185056
0.000146882
0.000112347
8.17991e-05
5.52509e-05
3.20009e-05
1.39427e-05
3.86556e-06
5.39966e-07
2.98705e-08
6.18331e-09
0.0011652
0.00116554
0.00116621
0.00116724
0.0011686
0.00117022
0.00117192
0.00117345
0.00117451
0.00117473
0.00117368
0.00117092
0.001166
0.00115846
0.00114788
0.00113388
0.00111616
0.00109449
0.00106875
0.00103892
0.0010051
0.000967486
0.000926375
0.000882143
0.000835226
0.000786104
0.00073528
0.000683258
0.000630537
0.000577594
0.000524879
0.000472571
0.000418559
0.000366325
0.00031659
0.000269571
0.000225449
0.000184404
0.000146616
0.000112331
8.19172e-05
5.54172e-05
3.21715e-05
1.40446e-05
3.90052e-06
5.45387e-07
3.01642e-08
6.22634e-09
0.0012231
0.00122344
0.00122408
0.00122502
0.00122619
0.00122747
0.00122864
0.00122941
0.00122943
0.00122828
0.00122551
0.00122065
0.00121323
0.0012028
0.00118897
0.00117141
0.00114988
0.00112425
0.00109449
0.00106069
0.00102304
0.000981828
0.000937426
0.000890261
0.000840807
0.000789557
0.000737009
0.000683653
0.000629957
0.000576362
0.000523278
0.000468885
0.000415055
0.000363441
0.00031441
0.000268073
0.00022455
0.000183979
0.000146524
0.000112436
8.2111e-05
5.56222e-05
3.23474e-05
1.41444e-05
3.93385e-06
5.50491e-07
3.04345e-08
6.26094e-09
0.00128124
0.0012815
0.00128198
0.00128266
0.00128342
0.0012841
0.00128445
0.00128414
0.00128277
0.00127989
0.00127502
0.00126767
0.00125738
0.00124372
0.00122634
0.00120499
0.00117952
0.00114988
0.00111616
0.00107854
0.0010373
0.000992799
0.000945466
0.000895765
0.000844179
0.000791202
0.000737313
0.000682973
0.000628615
0.00057464
0.00052028
0.000464933
0.000411626
0.000360835
0.000312592
0.000266938
0.000223969
0.000183807
0.000146617
0.000112666
8.23808e-05
5.58668e-05
3.25348e-05
1.4247e-05
3.96754e-06
5.55583e-07
3.06932e-08
6.28929e-09
0.00133934
0.00133945
0.00133962
0.00133982
0.00133992
0.00133973
0.00133895
0.00133722
0.0013341
0.00132912
0.00132176
0.00131156
0.00129805
0.00128086
0.00125972
0.00123445
0.00120499
0.00117141
0.00113388
0.00109268
0.00104816
0.00100074
0.000950872
0.000899042
0.00084573
0.00079141
0.000736534
0.000681526
0.000626777
0.000572644
0.000515895
0.000460976
0.000408597
0.000358703
0.00031123
0.00026621
0.000223721
0.000183887
0.000146888
0.000113012
8.27191e-05
5.6146e-05
3.27295e-05
1.43497e-05
4.00058e-06
5.60525e-07
3.09407e-08
6.31297e-09
0.00139708
0.00139694
0.00139664
0.00139614
0.00139531
0.00139393
0.00139169
0.00138819
0.00138296
0.0013755
0.00136531
0.00135192
0.00133492
0.00131399
0.00128896
0.00125972
0.00122634
0.00118897
0.00114788
0.00110341
0.00105597
0.00100603
0.000954037
0.000900483
0.00084583
0.000790523
0.000734978
0.00067958
0.000624677
0.000567714
0.00051145
0.000457552
0.000406155
0.000357116
0.000310358
0.00026589
0.000223792
0.000184199
0.000147315
0.000113456
8.31131e-05
5.64512e-05
3.29277e-05
1.44512e-05
4.03265e-06
5.65283e-07
3.11765e-08
6.33301e-09
0.00145403
0.00145354
0.0014526
0.00145117
0.00144914
0.00144627
0.00144224
0.00143662
0.00142893
0.00141865
0.0014053
0.00138845
0.00136774
0.00134296
0.00131399
0.00128086
0.00124372
0.0012028
0.00115846
0.00111108
0.00106113
0.00100907
0.000955358
0.000900465
0.000844826
0.00078885
0.000732914
0.00067736
0.000620243
0.000562682
0.000507435
0.000454723
0.000404332
0.000356102
0.00030997
0.000265953
0.000224146
0.000184708
0.000147869
0.000113974
8.35459e-05
5.6772e-05
3.31251e-05
1.45497e-05
4.06333e-06
5.69808e-07
3.13986e-08
6.34991e-09
0.00150971
0.00150879
0.00150703
0.00150444
0.00150094
0.00149629
0.00149015
0.00148208
0.0014716
0.0014582
0.00144144
0.00142093
0.00139641
0.00136774
0.00133492
0.00129805
0.00125738
0.00121323
0.00116599
0.00111612
0.00106405
0.00101027
0.000955224
0.000899344
0.000843035
0.000786667
0.000730573
0.000673406
0.000614569
0.000558046
0.000504167
0.000452621
0.000403154
0.000355636
0.00031002
0.000266345
0.000224734
0.000185372
0.000148516
0.000114543
8.40014e-05
5.70989e-05
3.33183e-05
1.46441e-05
4.09238e-06
5.74066e-07
3.1606e-08
6.36403e-09
0.00156359
0.00156216
0.00155943
0.00155548
0.00155026
0.00154355
0.00153501
0.0015242
0.00151065
0.00149391
0.00147355
0.00144929
0.00142093
0.00138845
0.00135192
0.00131156
0.00126767
0.00122065
0.00117092
0.00111893
0.00106516
0.00101004
0.000954002
0.00089745
0.000840745
0.000784216
0.000727088
0.000667011
0.000609258
0.000554312
0.000501767
0.000451265
0.000402604
0.000355671
0.000310449
0.00026701
0.000225505
0.00018615
0.000149228
0.000115143
8.44671e-05
5.74252e-05
3.35053e-05
1.47341e-05
4.11977e-06
5.78062e-07
3.17993e-08
6.3759e-09
0.00161514
0.00161312
0.00160929
0.00160381
0.00159666
0.00158765
0.00157646
0.00156268
0.00154587
0.00152562
0.00150158
0.00147355
0.00144144
0.0014053
0.00136531
0.00132176
0.00127502
0.00122551
0.00117368
0.00111998
0.00106486
0.00100875
0.000952036
0.000895083
0.000838213
0.000781208
0.000719927
0.000660981
0.00060504
0.000551614
0.000500241
0.000450641
0.000402635
0.000356148
0.000311199
0.000267895
0.000226418
0.00018701
0.00014998
0.000115758
8.49348e-05
5.77473e-05
3.36864e-05
1.48202e-05
4.14584e-06
5.81855e-07
3.19822e-08
6.38656e-09
0.00166384
0.00166118
0.00165617
0.00164902
0.00163977
0.00162827
0.00161426
0.00159734
0.00157714
0.00155332
0.00152562
0.00149391
0.0014582
0.00141865
0.0013755
0.00132912
0.0012799
0.00122828
0.00117473
0.00111968
0.00106356
0.00100676
0.000949641
0.000892514
0.000835667
0.00077328
0.000713167
0.000656275
0.000602057
0.000549945
0.000499575
0.000450701
0.000403188
0.000357006
0.000312214
0.000268954
0.000227437
0.000187927
0.000150758
0.000116381
8.54e-05
5.80641e-05
3.38635e-05
1.49041e-05
4.17123e-06
5.85552e-07
3.21614e-08
6.39757e-09
0.00170923
0.0017059
0.00169964
0.00169074
0.00167928
0.0016652
0.00164824
0.00162812
0.00160451
0.00157714
0.00154587
0.00151065
0.0014716
0.00142893
0.00138296
0.0013341
0.00128277
0.00122943
0.00117452
0.00111845
0.00106163
0.00100441
0.000947102
0.000889991
0.000827021
0.000765831
0.000707987
0.000653024
0.000600277
0.00054928
0.00049971
0.000451373
0.000404191
0.000358183
0.000313447
0.000270152
0.000228536
0.000188884
0.00015155
0.000117003
8.58598e-05
5.83753e-05
3.40387e-05
1.49877e-05
4.19669e-06
5.89283e-07
3.23446e-08
6.41075e-09
0.00175091
0.00174691
0.00173939
0.0017287
0.00171501
0.00169829
0.00167839
0.00165508
0.00162812
0.00159734
0.00156268
0.0015242
0.00148208
0.00143662
0.00138819
0.00133722
0.00128414
0.00122941
0.00117345
0.00111666
0.0010594
0.00100197
0.000944669
0.000881246
0.000818906
0.000760095
0.000704434
0.000651145
0.000599648
0.000549535
0.00050055
0.00045257
0.000405573
0.000359622
0.000314848
0.00027145
0.000229687
0.000189862
0.000152343
0.000117618
8.63102e-05
5.86795e-05
3.42135e-05
1.50722e-05
4.22285e-06
5.93154e-07
3.25386e-08
6.42783e-09
0.00178858
0.00178393
0.00177517
0.00176273
0.00174684
0.00172755
0.00170478
0.00167839
0.00164824
0.00161426
0.00157646
0.00153501
0.00149015
0.00144224
0.00139169
0.00133895
0.00128445
0.00122864
0.00117192
0.00111465
0.00105715
0.000999703
0.000936207
0.000872545
0.000812591
0.000756191
0.000702423
0.000650542
0.000600034
0.000550569
0.000501972
0.000454187
0.000407247
0.000361253
0.000316367
0.00027281
0.00023086
0.000190837
0.000153122
0.000118215
8.6745e-05
5.89737e-05
3.43877e-05
1.51584e-05
4.25003e-06
5.97227e-07
3.27475e-08
6.45002e-09
0.00182198
0.00181671
0.00180678
0.00179269
0.00177472
0.001753
0.00172755
0.00169829
0.0016652
0.00162828
0.00158765
0.00154355
0.00149629
0.00144627
0.00139393
0.00133973
0.0012841
0.00122747
0.00117022
0.00111267
0.00105512
0.000992333
0.00092708
0.000865591
0.000808242
0.000753964
0.000701779
0.000651015
0.000601238
0.000552207
0.000503828
0.000456105
0.000409118
0.000363001
0.000317942
0.000274184
0.000232021
0.000191785
0.000153868
0.000118781
8.71554e-05
5.92526e-05
3.45594e-05
1.52454e-05
4.27808e-06
6.01486e-07
3.29708e-08
6.47762e-09
0.00185086
0.00184504
0.00183406
0.00181847
0.00179862
0.00177472
0.00174684
0.00171501
0.00167928
0.00163977
0.00159666
0.00155026
0.00150094
0.00144914
0.00139531
0.00133992
0.00128342
0.0012262
0.0011686
0.00111094
0.0010503
0.000983172
0.000919465
0.000860672
0.000805661
0.000753143
0.000702218
0.000652289
0.000603014
0.000554241
0.000505944
0.00045818
0.000411068
0.000364771
0.0003195
0.000275515
0.000233124
0.000192672
0.000154558
0.0001193
8.753e-05
5.95089e-05
3.47238e-05
1.53309e-05
4.30625e-06
6.05817e-07
3.32024e-08
6.50968e-09
0.00187495
0.00186866
0.00185679
0.00183992
0.00181847
0.00179269
0.00176273
0.0017287
0.00169074
0.00164902
0.00160382
0.00155549
0.00150445
0.00145117
0.00139614
0.00133982
0.00128266
0.00122502
0.00116724
0.00110956
0.00104176
0.000975201
0.000914003
0.000857614
0.000804478
0.000753349
0.000703372
0.000654031
0.000605075
0.000556426
0.000508115
0.000460243
0.000412959
0.000366452
0.000320952
0.000276734
0.00023412
0.000193461
0.000155164
0.000119753
8.78561e-05
5.97338e-05
3.48742e-05
1.54111e-05
4.33317e-06
6.1e-07
3.34297e-08
6.54382e-09
0.0018939
0.00188723
0.00187466
0.00185679
0.00183406
0.00180679
0.00177517
0.00173939
0.00169964
0.00165617
0.0016093
0.00155943
0.00150703
0.0014526
0.00139664
0.00133962
0.00128199
0.00122408
0.00116622
0.00110344
0.00103456
0.000969552
0.00091046
0.000855931
0.000804239
0.000754138
0.000704827
0.000655874
0.0006071
0.000558487
0.000510108
0.000462098
0.000414631
0.000367916
0.000322198
0.000277766
0.00023495
0.000194111
0.000155658
0.000120119
8.81197e-05
5.99172e-05
3.50017e-05
1.54805e-05
4.35685e-06
6.13714e-07
3.36339e-08
6.57632e-09
0.0019072
0.00190028
0.00188724
0.00186866
0.00184504
0.00181671
0.00178393
0.00174691
0.0017059
0.00166118
0.00161312
0.00156216
0.00150879
0.00145354
0.00139693
0.00133945
0.0012815
0.00122344
0.00116554
0.00109812
0.00102922
0.000965805
0.00090838
0.000855179
0.000804477
0.000755052
0.000706161
0.000657437
0.000608752
0.000560129
0.000511671
0.000463533
0.000415909
0.000369022
0.000323128
0.000278527
0.000235556
0.00019458
0.000156012
0.00012038
8.83074e-05
6.00488e-05
3.50963e-05
1.55329e-05
4.37493e-06
6.16567e-07
3.3792e-08
6.60245e-09
0.00191421
0.0019072
0.0018939
0.00187495
0.00185086
0.00182198
0.00178858
0.00175091
0.00170923
0.00166384
0.00161514
0.00156359
0.00150971
0.00145403
0.00139708
0.00133934
0.00128124
0.00122311
0.0011652
0.00109526
0.00102636
0.000963879
0.000907402
0.000854926
0.000804746
0.000755665
0.000706981
0.000658361
0.00060971
0.000561068
0.000512555
0.000464338
0.00041662
0.000369632
0.000323638
0.00027894
0.000235882
0.000194831
0.000156201
0.000120519
8.84059e-05
6.01182e-05
3.51476e-05
1.55616e-05
4.38495e-06
6.18154e-07
3.38805e-08
6.61742e-09
)
;

boundaryField
{
    inlet
    {
        type            cyclic;
    }
    outlet
    {
        type            cyclic;
    }
    walls
    {
        type            nutLowReWallFunction;
        value           uniform 0;
    }
    symPlanes
    {
        type            symmetry;
    }
}


// ************************************************************************* //
