/*--------------------------------*- C++ -*----------------------------------*\
| =========                 |                                                 |
| \\      /  F ield         | OpenFOAM: The Open Source CFD Toolbox           |
|  \\    /   O peration     | Version:  2412                                  |
|   \\  /    A nd           | Website:  www.openfoam.com                      |
|    \\/     M anipulation  |                                                 |
\*---------------------------------------------------------------------------*/
FoamFile
{
    version     2.0;
    format      ascii;
    arch        "LSB;label=32;scalar=64";
    class       volScalarField;
    location    "2130";
    object      omega;
}
// * * * * * * * * * * * * * * * * * * * * * * * * * * * * * * * * * * * * * //

dimensions      [0 0 -1 0 0 0 0];

internalField   nonuniform List<scalar> 
2304
(
2465.53
2465.53
2465.53
2465.53
2465.53
2465.53
2465.53
2465.53
2465.53
2465.53
2465.53
2465.53
2465.53
2465.53
2465.53
2465.53
2465.53
2465.53
2465.53
2465.53
2465.53
2465.53
2465.52
2465.52
2465.52
2465.52
2465.52
2465.52
2465.52
2465.52
2465.52
2465.52
2465.52
2465.51
2465.51
2465.51
2465.51
2465.51
2465.51
2465.5
2465.5
2465.5
2465.5
2465.5
2465.5
2465.5
2465.5
2465.5
416.245
416.242
416.238
416.233
416.227
416.22
416.213
416.205
416.197
416.187
416.175
416.162
416.147
416.131
416.112
416.089
416.063
416.032
416.01
415.985
415.954
415.918
415.877
415.83
415.777
415.721
415.661
415.594
415.508
415.413
415.309
415.196
415.076
414.952
414.831
414.721
414.633
414.574
414.549
414.665
414.736
414.678
414.547
414.588
415.974
428.75
559.216
2465.5
140.954
140.942
140.922
140.898
140.872
140.848
140.827
140.811
140.799
140.79
140.782
140.775
140.766
140.755
140.741
140.724
140.704
140.678
140.632
140.576
140.508
140.427
140.332
140.223
140.099
139.963
139.813
139.644
139.445
139.224
138.983
138.722
138.443
138.151
137.857
137.573
137.316
137.096
136.908
136.636
136.391
136.266
136.498
138.121
146.207
187.895
428.75
2465.5
70.9622
70.9476
70.9224
70.8912
70.8586
70.828
70.8016
70.7801
70.763
70.7487
70.7354
70.721
70.7039
70.6825
70.656
70.6231
70.5827
70.5323
70.4614
70.3751
70.2716
70.1488
70.0052
69.8403
69.6542
69.4476
69.2197
68.9634
68.6673
68.3399
67.984
67.6001
67.1915
66.7654
66.3333
65.9103
65.5128
65.1531
64.8288
64.4966
64.2435
64.2857
65.3123
69.6612
85.6993
146.207
415.975
2465.5
45.2923
45.2796
45.2579
45.2312
45.2033
45.1774
45.155
45.1363
45.1207
45.1067
45.0922
45.0752
45.054
45.0269
44.9923
44.9487
44.8941
44.8258
44.7373
44.6303
44.5035
44.3553
44.1852
43.993
43.7795
43.5452
43.2884
43.0017
42.6747
42.3166
41.9316
41.5222
41.0941
40.6565
40.2219
39.805
39.4196
39.0758
38.7777
38.5312
38.4557
38.9386
41.117
48.201
69.6612
138.121
414.589
2465.5
32.7263
32.7177
32.7034
32.686
32.6682
32.6517
32.6374
32.6251
32.6138
32.6021
32.5882
32.5705
32.5471
32.5164
32.4764
32.4252
32.3604
32.2796
32.179
32.0589
31.9188
31.7585
31.5789
31.3809
31.1659
30.9344
30.685
30.4125
30.1118
29.7903
29.4536
29.1078
28.7612
28.4253
28.1138
27.8407
27.6183
27.4567
27.3692
27.3976
27.7046
28.8102
32.1086
41.117
65.3124
136.498
414.547
2465.5
25.2116
25.2069
25.1995
25.1908
25.1819
25.1737
25.1661
25.1585
25.1499
25.1389
25.1241
25.104
25.077
25.0415
24.9954
24.9364
24.8625
24.7716
24.6616
24.5329
24.386
24.2222
24.0435
23.852
23.6495
23.4369
23.2136
22.9771
22.727
22.4705
22.2152
21.97
21.746
21.5564
21.4158
21.3389
21.3396
21.433
21.646
22.0516
22.8535
24.6207
28.8102
38.9387
64.2858
136.266
414.678
2465.5
20.1785
20.177
20.175
20.1727
20.1703
20.1676
20.1639
20.1583
20.1498
20.1371
20.119
20.0945
20.062
20.02
19.9665
19.8995
19.8171
19.7181
19.6015
19.4683
19.3202
19.1596
18.9895
18.813
18.6323
18.4488
18.2628
18.0745
17.8859
17.7048
17.5399
17.4014
17.3012
17.2534
17.2733
17.378
17.5867
17.9242
18.4335
19.2117
20.493
22.8535
27.7046
38.4558
64.2435
136.391
414.736
2465.5
16.5738
16.5746
16.5763
16.5783
16.5799
16.5803
16.5781
16.5724
16.5621
16.546
16.5234
16.4932
16.4542
16.405
16.344
16.2694
16.18
16.0752
15.9551
15.8214
15.6768
15.5246
15.3686
15.2124
15.0587
14.9095
14.7661
14.6306
14.5067
14.4012
14.3225
14.2807
14.2878
14.3578
14.5076
14.7575
15.1337
15.6727
16.4332
17.5297
19.2117
22.0517
27.3977
38.5313
64.4966
136.636
414.665
2465.51
13.8835
13.8858
13.8897
13.8943
13.898
13.8995
13.8972
13.89
13.8767
13.8566
13.8287
13.7925
13.7469
13.6909
13.623
13.5423
13.4478
13.3399
13.2196
13.0892
12.9522
12.8123
12.674
12.5411
12.4168
12.3032
12.2028
12.1181
12.0535
12.0146
12.0094
12.0474
12.1405
12.3033
12.5541
12.9166
13.423
14.1204
15.0814
16.4333
18.4336
21.646
27.3693
38.7778
64.8289
136.908
414.549
2465.51
11.8195
11.8225
11.8277
11.8335
11.8379
11.8391
11.8356
11.826
11.8092
11.7846
11.7516
11.7096
11.6579
11.5958
11.5225
11.4373
11.3402
11.2321
11.1147
10.991
10.8647
10.74
10.6214
10.513
10.4179
10.3387
10.2779
10.2383
10.224
10.2404
10.2947
10.3964
10.5574
10.7931
11.1232
11.5743
12.1831
13.0038
14.1204
15.6727
17.9242
21.433
27.4568
39.0759
65.1532
137.096
414.575
2465.51
10.2009
10.2043
10.2099
10.2158
10.2198
10.22
10.2144
10.2019
10.1815
10.1525
10.1145
10.0672
10.0102
9.94332
9.86606
9.77845
9.68108
9.57545
9.46392
9.34963
9.23657
9.12885
9.03085
8.94644
8.87885
8.83078
8.80471
8.80344
8.83078
8.89195
8.99409
9.14663
9.36185
9.65579
10.0496
10.5721
11.2635
12.1831
13.4231
15.1338
17.5868
21.3397
27.6184
39.4197
65.5129
137.316
414.633
2465.51
8.9072
8.91062
8.91604
8.92138
8.92431
8.92268
8.91469
8.89906
8.87487
8.84163
8.79912
8.74728
8.68611
8.61567
8.53618
8.44821
8.3529
8.25225
8.14898
8.04632
7.94817
7.85831
7.78072
7.71897
7.67619
7.65517
7.65855
7.68912
7.75061
7.84823
7.98913
8.18286
8.44213
8.78378
9.2302
9.81196
10.5721
11.5743
12.9166
14.7576
17.3781
21.339
27.8408
39.8051
65.9105
137.573
414.721
2465.51
7.85569
7.85882
7.86361
7.86785
7.86914
7.86532
7.85459
7.83571
7.80789
7.77076
7.72432
7.66876
7.60446
7.53195
7.45197
7.36561
7.27449
7.18095
7.08787
6.99838
6.91607
6.84433
6.78646
6.7456
6.72468
6.72662
6.75441
6.81118
6.90069
7.02819
7.20091
7.4286
7.72442
8.1062
8.59758
9.2302
10.0496
11.1233
12.5542
14.5077
17.2734
21.4159
28.1139
40.2221
66.3334
137.857
414.831
2465.51
6.98826
6.99091
6.99471
6.99746
6.99675
6.99043
6.97678
6.95464
6.92335
6.88271
6.83293
6.77453
6.70827
6.63511
6.55631
6.47343
6.38835
6.30364
6.22217
6.14684
6.08068
6.02671
5.98748
5.96567
5.96401
5.98546
6.03337
6.11157
6.22413
6.37637
6.5756
6.83175
7.15848
7.57542
8.1062
8.78378
9.65581
10.7932
12.3034
14.3579
17.2535
21.5565
28.4254
40.6567
66.7656
138.151
414.952
2465.52
6.26281
6.26483
6.26741
6.26838
6.26541
6.25642
6.2398
6.21447
6.17995
6.13625
6.08383
6.02353
5.9565
5.88414
5.80812
5.73035
5.6529
5.5784
5.5094
5.44862
5.39824
5.36065
5.33829
5.33362
5.34924
5.38803
5.45337
5.54939
5.6811
5.85418
6.07613
6.35705
6.71067
7.15847
7.72441
8.44213
9.36185
10.5575
12.1406
14.2879
17.3013
21.7461
28.7613
41.0943
67.1917
138.443
415.076
2465.52
5.64805
5.64932
5.65049
5.64949
5.6441
5.63235
5.61277
5.58444
5.54706
5.50087
5.44662
5.38548
5.31898
5.24888
5.17718
5.10598
5.03751
4.97412
4.91789
4.87076
4.83479
4.81203
4.80488
4.8157
4.847
4.90162
4.98283
5.09473
5.24281
5.43372
5.67544
5.97826
6.35704
6.83173
7.42857
8.18284
9.14661
10.3964
12.0474
14.2808
17.4015
21.9702
29.1079
41.5224
67.6002
138.722
415.196
2465.52
5.1209
5.12134
5.12097
5.11786
5.10994
5.09541
5.07295
5.04187
5.00206
4.95404
4.89885
4.83801
4.77337
4.70699
4.64107
4.57771
4.51912
4.46678
4.42246
4.38784
4.36501
4.35595
4.36279
4.38776
4.43332
4.50231
4.59807
4.72475
4.88771
5.09418
5.35299
5.67542
6.0761
6.57556
7.20086
7.98908
8.99405
10.2947
12.0094
14.3225
17.54
22.2153
29.4538
41.9317
67.9841
138.983
415.309
2465.52
4.6639
4.66345
4.66145
4.65616
4.64568
4.62841
4.60326
4.56975
4.52806
4.47897
4.42386
4.36453
4.3031
4.24187
4.183
4.12832
4.07927
4.03726
4.00398
3.98119
3.97069
3.97431
3.99401
4.03194
4.09054
4.17269
4.28182
4.4222
4.59923
4.82002
5.09416
5.43368
5.85413
6.3763
7.02812
7.84816
8.89188
10.2403
12.0146
14.4012
17.7049
22.4706
29.7904
42.3168
68.3401
139.224
415.413
2465.52
4.26355
4.26218
4.25852
4.25103
4.23803
4.21818
4.19062
4.15515
4.11223
4.06298
4.00904
3.95249
3.89566
3.84081
3.78958
3.74334
3.70331
3.67121
3.64857
3.63695
3.63798
3.65333
3.68488
3.73474
3.80535
3.89965
4.02117
4.17431
4.3646
4.59922
4.88768
5.24275
5.68103
6.22404
6.90059
7.75051
8.83067
10.2239
12.0534
14.5067
17.8859
22.7271
30.1119
42.6748
68.6675
139.445
415.508
2465.52
3.9093
3.90702
3.90171
3.89207
3.8767
3.8545
3.82494
3.78811
3.74479
3.69639
3.64484
3.5924
3.54139
3.49334
3.44957
3.41142
3.38038
3.35793
3.34546
3.34437
3.35614
3.38237
3.4249
3.4858
3.56758
3.67321
3.80633
3.97146
4.1743
4.42217
4.7247
5.09466
5.54929
6.11145
6.81104
7.68898
8.80329
10.2382
12.118
14.6305
18.0744
22.9772
30.4126
43.0019
68.9636
139.644
415.594
2465.52
3.5928
3.58962
3.58274
3.5711
3.5536
3.52945
3.49845
3.46103
3.41829
3.37191
3.32403
3.27692
3.23202
3.19064
3.15424
3.12427
3.10208
3.08895
3.08614
3.09495
3.11676
3.15313
3.20588
3.27711
3.36936
3.48567
3.62978
3.80632
4.02114
4.28177
4.59801
4.98274
5.45325
6.03322
6.75424
7.65836
8.80452
10.2777
12.2026
14.766
18.2627
23.2136
30.6851
43.2886
69.2199
139.813
415.662
2465.52
3.30737
3.30337
3.29506
3.28168
3.26242
3.23688
3.2052
3.16815
3.12712
3.08401
3.04098
2.99939
2.96052
2.92593
2.89708
2.87526
2.86168
2.85749
2.86383
2.88195
2.91317
2.95906
3.02142
3.10239
3.20456
3.33104
3.48566
3.67318
3.89961
4.17263
4.50223
4.90151
5.3879
5.98529
6.72642
7.65495
8.83055
10.3385
12.303
14.9093
18.4487
23.4369
30.9344
43.5453
69.4479
139.963
415.722
2465.52
3.04773
3.04301
3.03351
3.01875
2.9983
2.97211
2.94068
2.90512
2.86704
2.82834
2.79031
2.7542
2.72162
2.69404
2.67276
2.65895
2.65369
2.65803
2.67305
2.69995
2.74006
2.79493
2.86639
2.95663
3.06829
3.20455
3.36934
3.56754
3.8053
4.09047
4.43323
4.84689
5.3491
5.96383
6.72446
7.67595
8.8786
10.4176
12.4165
15.0585
18.6322
23.6494
31.1659
43.7797
69.6544
140.1
415.778
2465.53
2.80969
2.80444
2.79409
2.7785
2.75758
2.73167
2.70161
2.66873
2.63463
2.60049
2.56746
2.53719
2.51114
2.49065
2.47688
2.47086
2.4736
2.48608
2.50935
2.54458
2.59312
2.65653
2.73669
2.83582
2.95663
3.10238
3.27709
3.48577
3.73469
4.03187
4.38766
4.81558
5.33347
5.96548
6.74537
7.71872
8.94617
10.5127
12.5409
15.2122
18.8129
23.8519
31.381
43.9932
69.8406
140.223
415.83
2465.53
2.59018
2.58462
2.57389
2.55815
2.53766
2.51312
2.48557
2.45629
2.42632
2.39675
2.36914
2.34498
2.3256
2.31218
2.30575
2.30728
2.31769
2.33794
2.36907
2.41224
2.46883
2.54043
2.62896
2.73669
2.86639
3.0214
3.20586
3.42486
3.68483
3.99394
4.36269
4.80476
5.33814
5.9873
6.78623
7.78046
9.03057
10.6212
12.6737
15.3684
18.9894
24.0434
31.579
44.1854
70.0055
140.333
415.877
2465.53
2.38709
2.38154
2.371
2.35591
2.33685
2.31472
2.29041
2.26485
2.23906
2.21451
2.19262
2.17473
2.16203
2.15556
2.15628
2.16508
2.18286
2.21055
2.24919
2.29998
2.3643
2.4438
2.54043
2.65653
2.79492
2.95905
3.15311
3.38234
3.65328
3.97424
4.35586
4.81191
5.36051
6.02654
6.84412
7.85807
9.1286
10.7397
12.8121
15.5244
19.1594
24.2222
31.7586
44.3555
70.149
140.428
415.919
2465.53
2.19927
2.1941
2.18438
2.17073
2.15395
2.13466
2.11367
2.09193
2.07077
2.05154
2.03554
2.02397
2.01787
2.0182
2.02585
2.04166
2.0665
2.10134
2.14721
2.20534
2.27714
2.36431
2.46883
2.59312
2.74006
2.91316
3.11674
3.35611
3.63793
3.97063
4.36493
4.83469
5.39811
6.08052
6.91589
7.94796
9.23636
10.8645
12.952
15.6767
19.3201
24.386
31.9189
44.5037
70.2718
140.508
415.955
2465.53
2.02627
2.02178
2.01337
2.00165
1.98727
1.97085
1.95333
1.93584
1.91962
1.90591
1.89587
1.89056
1.89094
1.89787
1.91221
1.93478
1.96644
2.00817
2.06102
2.12626
2.20534
2.29998
2.41225
2.54459
2.69995
2.88194
3.09493
3.34435
3.63692
3.98114
4.38778
4.87068
5.44852
6.14672
6.99823
8.04616
9.34947
10.9908
13.0891
15.8213
19.4683
24.5329
32.059
44.6305
70.3753
140.576
415.985
2465.53
1.8676
1.86381
1.85675
1.84696
1.83498
1.82168
1.80801
1.79507
1.784
1.7759
1.77179
1.77265
1.77933
1.79267
1.81347
1.84256
1.88082
1.92922
1.98886
2.06103
2.14722
2.2492
2.36908
2.50936
2.67306
2.86384
3.08614
3.34545
3.64855
4.00396
4.42242
4.91784
5.50933
6.22209
7.08777
8.14887
9.46381
11.1146
13.2196
15.9551
19.6015
24.6617
32.1791
44.7374
70.4615
140.632
416.011
2465.53
1.72173
1.71861
1.71288
1.70508
1.69585
1.68601
1.67649
1.66831
1.66248
1.65997
1.66172
1.66858
1.68139
1.70093
1.72799
1.76341
1.80806
1.86296
1.92922
2.00817
2.10135
2.21056
2.33795
2.48609
2.65804
2.8575
3.08896
3.35794
3.67121
4.03726
4.46677
4.9741
5.57837
6.3036
7.1809
8.2522
9.5754
11.232
13.3399
16.0752
19.7181
24.7717
32.2797
44.8259
70.5324
140.679
416.033
2465.53
1.58718
1.58486
1.58067
1.57515
1.56894
1.56283
1.55767
1.55434
1.55375
1.55676
1.56423
1.57694
1.59569
1.62124
1.65438
1.69593
1.74683
1.80807
1.88083
1.96645
2.06652
2.18287
2.31771
2.47362
2.65371
2.8617
3.1021
3.3804
3.70333
4.07928
4.51913
5.03752
5.65291
6.38835
7.27449
8.3529
9.68109
11.3402
13.4479
16.1801
19.8172
24.8626
32.3605
44.8941
70.5827
140.704
416.063
2465.53
1.4633
1.46188
1.45942
1.45642
1.45347
1.45125
1.45052
1.45205
1.45663
1.46505
1.47807
1.49646
1.52097
1.55235
1.59139
1.63895
1.69594
1.76341
1.84257
1.93479
2.04167
2.1651
2.3073
2.47089
2.65898
2.87529
3.12431
3.41145
3.74337
4.12836
4.57775
5.10602
5.73038
6.47346
7.36565
8.44825
9.7785
11.4374
13.5423
16.2695
19.8996
24.9365
32.4252
44.9487
70.623
140.724
416.09
2465.53
1.34958
1.34916
1.34858
1.34826
1.34867
1.35041
1.3541
1.36041
1.37005
1.38371
1.40213
1.42602
1.45611
1.49317
1.53797
1.5914
1.65438
1.728
1.81348
1.91223
2.02586
2.15631
2.30578
2.47691
2.67279
2.89711
3.15428
3.44961
3.78963
4.18305
4.64112
5.17724
5.80819
6.55638
7.45204
8.53626
9.86614
11.5226
13.6231
16.3441
19.9666
24.9954
32.4764
44.9923
70.6559
140.741
416.112
2465.53
1.24561
1.24624
1.24762
1.25004
1.25385
1.25951
1.26754
1.27851
1.29303
1.31177
1.3354
1.36462
1.40014
1.44272
1.49317
1.55235
1.62125
1.70094
1.79268
1.89789
2.01822
2.15559
2.31221
2.49068
2.69407
2.92597
3.19068
3.4934
3.84087
4.24193
4.70706
5.24896
5.88422
6.6352
7.53204
8.61577
9.94341
11.5959
13.6909
16.4051
20.02
25.0415
32.5164
45.0268
70.6824
140.755
416.131
2465.53
1.15099
1.15268
1.15604
1.16118
1.16832
1.1778
1.19001
1.20546
1.22469
1.24832
1.27698
1.31135
1.35216
1.40014
1.45612
1.52097
1.5957
1.6814
1.77934
1.89096
2.01789
2.16205
2.32563
2.51117
2.72165
2.96056
3.23206
3.54145
3.89572
4.30317
4.77344
5.31906
5.95658
6.70836
7.60456
8.6862
10.0103
11.658
13.747
16.4542
20.062
25.077
32.5471
45.0539
70.7037
140.766
416.148
2465.53
1.06533
1.06806
1.07334
1.0811
1.09144
1.10456
1.12076
1.14048
1.16422
1.19253
1.22604
1.26542
1.31136
1.36462
1.42602
1.49647
1.57695
1.6686
1.77266
1.89058
2.02399
2.17475
2.34501
2.53722
2.75424
2.99943
3.27696
3.59246
3.95254
4.36459
4.83808
5.38556
6.02361
6.77461
7.66884
8.74736
10.0672
11.7096
13.7925
16.4932
20.0945
25.1039
32.5704
45.0751
70.7209
140.775
416.162
2465.53
0.988211
0.991928
0.999009
1.00924
1.02258
1.03912
1.05909
1.08285
1.11086
1.14366
1.18184
1.22604
1.27698
1.3354
1.40214
1.47808
1.56424
1.66173
1.77181
1.89589
2.03556
2.19264
2.36916
2.56749
2.79035
3.04102
3.32407
3.64488
4.00908
4.42391
4.89891
5.44668
6.08389
6.83299
7.72438
8.79918
10.1145
11.7516
13.8287
16.5234
20.119
25.124
32.5881
45.0921
70.7353
140.782
416.176
2465.53
0.919198
0.923818
0.932554
0.945057
0.961156
0.980857
1.00433
1.03189
1.06394
1.10101
1.14366
1.19253
1.24832
1.31178
1.38372
1.46505
1.55677
1.65998
1.77591
1.90592
2.05156
2.21453
2.39677
2.60051
2.82836
3.08404
3.37194
3.69643
4.06301
4.47901
4.95408
5.50091
6.13629
6.88275
7.7708
8.84167
10.1525
11.7847
13.8566
16.546
20.137
25.1388
32.602
45.1066
70.7486
140.79
416.187
2465.53
0.857839
0.863262
0.873476
0.888016
0.906615
0.929207
0.955909
0.986991
1.02284
1.06394
1.11086
1.16422
1.2247
1.29304
1.37005
1.45664
1.55376
1.66249
1.78401
1.91963
2.07078
2.23908
2.42633
2.63465
2.86706
3.12713
3.41831
3.7448
4.11225
4.52808
5.00208
5.54708
6.17997
6.92336
7.8079
8.87487
10.1815
11.8092
13.8767
16.562
20.1497
25.1498
32.6137
45.1207
70.7629
140.799
416.197
2465.53
0.803689
0.809807
0.821309
0.837641
0.858462
0.883654
0.913292
0.947616
0.986991
1.03189
1.08285
1.14049
1.20546
1.27851
1.36042
1.45205
1.55435
1.66832
1.79508
1.93585
2.09194
2.26486
2.4563
2.66874
2.90513
3.16815
3.46104
3.78811
4.15515
4.56976
5.04187
5.58444
6.21447
6.95464
7.8357
8.89904
10.2019
11.8259
13.8899
16.5724
20.1583
25.1585
32.625
45.1363
70.7801
140.811
416.206
2465.53
0.75634
0.763042
0.775638
0.79351
0.816269
0.843758
0.876027
0.913293
0.95591
1.00433
1.05909
1.12077
1.19002
1.26755
1.35411
1.45053
1.55768
1.6765
1.80802
1.95334
2.11367
2.29041
2.48558
2.70161
2.94068
3.2052
3.49845
3.82493
4.19061
4.60325
5.07294
5.61275
6.23978
6.97677
7.85457
8.91467
10.2144
11.8356
13.8972
16.5781
20.1638
25.1661
32.6374
45.155
70.8017
140.828
416.213
2465.53
0.71546
0.722636
0.736131
0.755291
0.7797
0.809178
0.843759
0.883655
0.929209
0.98086
1.03912
1.10456
1.1778
1.25952
1.35042
1.45126
1.56284
1.68601
1.82169
1.97086
2.13466
2.31472
2.51311
2.73166
2.9721
3.23687
3.52944
3.85449
4.21816
4.62839
5.09539
5.63233
6.2564
6.9904
7.86528
8.92264
10.2199
11.8391
13.8994
16.5802
20.1675
25.1737
32.6517
45.1774
70.8281
140.848
416.221
2465.53
0.680837
0.688381
0.702584
0.722782
0.748549
0.7797
0.81627
0.858464
0.906618
0.961159
1.02258
1.09145
1.16833
1.25386
1.34868
1.45348
1.56895
1.69585
1.83499
1.98728
2.15395
2.33685
2.53766
2.75757
2.99829
3.26241
3.55358
3.87668
4.23802
4.64566
5.10992
5.64407
6.26539
6.99672
7.86912
8.92428
10.2198
11.8378
13.898
16.5799
20.1703
25.1819
32.6682
45.2034
70.8586
140.872
416.227
2465.53
0.652416
0.660225
0.674954
0.695946
0.722782
0.755292
0.793511
0.837643
0.888019
0.94506
1.00925
1.08111
1.16118
1.25004
1.34826
1.45643
1.57516
1.70509
1.84697
2.00165
2.17073
2.35591
2.55815
2.77849
3.01874
3.28166
3.57109
3.89206
4.25101
4.65614
5.11784
5.64947
6.26836
6.99743
7.86783
8.92137
10.2158
11.8334
13.8943
16.5783
20.1727
25.1908
32.686
45.2312
70.8913
140.898
416.233
2465.53
0.630333
0.638317
0.653403
0.674955
0.702585
0.736133
0.77564
0.821312
0.87348
0.932558
0.999013
1.07334
1.15605
1.24763
1.34859
1.45943
1.58067
1.71289
1.85676
2.01338
2.18438
2.371
2.57388
2.79408
3.0335
3.29505
3.58273
3.9017
4.25851
4.66144
5.12095
5.65047
6.26739
6.99469
7.86359
8.91603
10.2099
11.8277
13.8897
16.5763
20.175
25.1995
32.7034
45.2579
70.9224
140.922
416.238
2465.53
0.614943
0.623023
0.638317
0.660226
0.688382
0.722638
0.763044
0.80981
0.863266
0.923823
0.991934
1.06807
1.15269
1.24624
1.34917
1.46189
1.58487
1.71862
1.86381
2.02178
2.19411
2.38155
2.58462
2.80443
3.043
3.30336
3.58961
3.90701
4.26218
4.66344
5.12133
5.64931
6.26482
6.9909
7.85882
8.91061
10.2043
11.8225
13.8858
16.5747
20.1771
25.207
32.7177
45.2797
70.9476
140.942
416.242
2465.53
0.606833
0.614943
0.630333
0.652416
0.680838
0.715462
0.756342
0.803692
0.857843
0.919203
0.988216
1.06534
1.151
1.24562
1.34959
1.46331
1.58719
1.72174
1.86761
2.02628
2.19927
2.38709
2.59018
2.80969
3.04772
3.30737
3.59279
3.9093
4.26355
4.6639
5.1209
5.64804
6.26281
6.98826
7.85569
8.90721
10.2009
11.8195
13.8835
16.5739
20.1785
25.2116
32.7263
45.2923
70.9622
140.954
416.245
2465.53
)
;

boundaryField
{
    inlet
    {
        type            cyclic;
    }
    outlet
    {
        type            cyclic;
    }
    walls
    {
        type            omegaWallFunction;
        blending        binomial;
        n               2;
        value           nonuniform List<scalar> 
96
(
2465.5
2465.5
2465.5
2465.5
2465.5
2465.5
2465.5
2465.5
2465.51
2465.51
2465.51
2465.51
2465.51
2465.51
2465.52
2465.52
2465.52
2465.52
2465.52
2465.52
2465.52
2465.52
2465.52
2465.53
2465.53
2465.53
2465.53
2465.53
2465.53
2465.53
2465.53
2465.53
2465.53
2465.53
2465.53
2465.53
2465.53
2465.53
2465.53
2465.53
2465.53
2465.53
2465.53
2465.53
2465.53
2465.53
2465.53
2465.53
2465.53
2465.53
2465.53
2465.53
2465.53
2465.53
2465.53
2465.53
2465.53
2465.53
2465.53
2465.53
2465.53
2465.53
2465.53
2465.53
2465.53
2465.53
2465.53
2465.53
2465.53
2465.53
2465.52
2465.52
2465.52
2465.52
2465.52
2465.52
2465.52
2465.52
2465.52
2465.52
2465.52
2465.51
2465.51
2465.51
2465.51
2465.51
2465.51
2465.5
2465.5
2465.5
2465.5
2465.5
2465.5
2465.5
2465.5
2465.5
)
;
    }
    symPlanes
    {
        type            symmetry;
    }
}


// ************************************************************************* //
