/*--------------------------------*- C++ -*----------------------------------*\
| =========                 |                                                 |
| \\      /  F ield         | OpenFOAM: The Open Source CFD Toolbox           |
|  \\    /   O peration     | Version:  2412                                  |
|   \\  /    A nd           | Website:  www.openfoam.com                      |
|    \\/     M anipulation  |                                                 |
\*---------------------------------------------------------------------------*/
FoamFile
{
    version     2.0;
    format      ascii;
    arch        "LSB;label=32;scalar=64";
    class       volTensorField;
    location    "2130";
    object      Omegaij;
}
// * * * * * * * * * * * * * * * * * * * * * * * * * * * * * * * * * * * * * //

dimensions      [0 0 -1 0 0 0 0];

internalField   nonuniform List<tensor> 
2304
(
(-0 -0.000270031 7.77859 0.000270031 -0 -0.00828888 -7.77859 0.00828888 -0)
(-0 -0.0007644 7.7698 0.0007644 -0 -0.0246922 -7.7698 0.0246922 -0)
(-0 -0.00113779 7.75442 0.00113779 -0 -0.0409019 -7.75442 0.0409019 -0)
(-0 -0.00135076 7.73528 0.00135076 -0 -0.0571016 -7.73528 0.0571016 -0)
(-0 -0.00140093 7.71517 0.00140093 -0 -0.0732899 -7.71517 0.0732899 -0)
(-0 -0.00131569 7.69631 0.00131569 -0 -0.0893206 -7.69631 0.0893206 -0)
(-0 -0.00114108 7.68014 0.00114108 -0 -0.104955 -7.68014 0.104955 -0)
(-0 -0.000930904 7.66723 0.000930904 -0 -0.119917 -7.66723 0.119917 -0)
(-0 -0.000737682 7.65743 0.000737682 -0 -0.133935 -7.65743 0.133935 -0)
(-0 -0.000604316 7.65001 0.000604316 -0 -0.146778 -7.65001 0.146778 -0)
(-0 -0.000558274 7.64393 0.000558274 -0 -0.158276 -7.64393 0.158276 -0)
(-0 -0.000607087 7.63809 0.000607087 -0 -0.168326 -7.63809 0.168326 -0)
(-0 -0.000739505 7.63155 0.000739505 -0 -0.17689 -7.63155 0.17689 -0)
(-0 -0.000935249 7.62369 0.000935249 -0 -0.183972 -7.62369 0.183972 -0)
(-0 -0.00117994 7.61415 0.00117994 -0 -0.189576 -7.61415 0.189576 -0)
(-0 -0.00147811 7.6027 0.00147811 -0 -0.19369 -7.6027 0.19369 -0)
(-0 -0.00186364 7.58903 0.00186364 -0 -0.196249 -7.58903 0.196249 -0)
(-0 -0.00239058 7.57245 0.00239058 -0 -0.197155 -7.57245 0.197155 -0)
(-0 -0.00312266 7.55197 0.00312266 -0 -0.196361 -7.55197 0.196361 -0)
(-0 -0.00414202 7.52623 0.00414202 -0 -0.1938 -7.52623 0.1938 -0)
(-0 -0.00552621 7.49342 0.00552621 -0 -0.189424 -7.49342 0.189424 -0)
(-0 -0.00733758 7.45161 0.00733758 -0 -0.183262 -7.45161 0.183262 -0)
(-0 -0.00961423 7.39876 0.00961423 -0 -0.175429 -7.39876 0.175429 -0)
(-0 -0.0123566 7.3331 0.0123566 -0 -0.166166 -7.3331 0.166166 -0)
(-0 -0.0155283 7.2532 0.0155283 -0 -0.15581 -7.2532 0.15581 -0)
(-0 -0.0190232 7.15824 0.0190232 -0 -0.144822 -7.15824 0.144822 -0)
(-0 -0.0226628 7.0484 0.0226628 -0 -0.133728 -7.0484 0.133728 -0)
(-0 -0.0263944 6.92495 0.0263944 -0 -0.122852 -6.92495 0.122852 -0)
(-0 -0.030686 6.78863 0.030686 -0 -0.111203 -6.78863 0.111203 -0)
(-0 -0.0360009 6.6363 0.0360009 -0 -0.097869 -6.6363 0.097869 -0)
(-0 -0.0424398 6.46498 0.0424398 -0 -0.0829262 -6.46498 0.0829262 -0)
(-0 -0.0501759 6.2717 0.0501759 -0 -0.0664074 -6.2717 0.0664074 -0)
(-0 -0.059451 6.05308 0.059451 -0 -0.0484324 -6.05308 0.0484324 -0)
(-0 -0.0704566 5.80536 0.0704566 -0 -0.029356 -5.80536 0.029356 -0)
(-0 -0.0832046 5.52492 0.0832046 -0 -0.00992861 -5.52492 0.00992861 -0)
(-0 -0.0973993 5.20917 0.0973993 -0 0.00859924 -5.20917 -0.00859924 -0)
(-0 -0.112333 4.85762 0.112333 -0 0.0244795 -4.85762 -0.0244795 -0)
(-0 -0.126889 4.47303 0.126889 -0 0.0356796 -4.47303 -0.0356796 -0)
(-0 -0.139762 4.06199 0.139762 -0 0.0404044 -4.06199 -0.0404044 -0)
(-0 -0.149943 3.63439 0.149943 -0 0.0378657 -3.63439 -0.0378657 -0)
(-0 -0.15736 3.2012 0.15736 -0 0.0293776 -3.2012 -0.0293776 -0)
(-0 -0.163056 2.77064 0.163056 -0 0.0186044 -2.77064 -0.0186044 -0)
(-0 -0.168461 2.34594 0.168461 -0 0.00944506 -2.34594 -0.00944506 -0)
(-0 -0.174613 1.92658 0.174613 -0 0.00368294 -1.92658 -0.00368294 -0)
(-0 -0.182235 1.51046 0.182235 -0 0.000958242 -1.51046 -0.000958242 -0)
(-0 -0.192453 1.09447 0.192453 -0 7.84355e-05 -1.09447 -7.84355e-05 -0)
(-0 -0.208246 0.673738 0.208246 -0 -3.04622e-05 -0.673738 3.04622e-05 -0)
(-0 -0.23919 0.23919 0.23919 -0 3.92e-08 -0.23919 -3.92e-08 -0)
(-0 -0.000821117 7.67798 0.000821117 -0 -0.00762196 -7.67798 0.00762196 -0)
(-0 -0.00232389 7.66932 0.00232389 -0 -0.0226646 -7.66932 0.0226646 -0)
(-0 -0.00345895 7.65417 0.00345895 -0 -0.03741 -7.65417 0.03741 -0)
(-0 -0.00410704 7.63531 0.00410704 -0 -0.0519799 -7.63531 0.0519799 -0)
(-0 -0.00426059 7.61548 0.00426059 -0 -0.0663668 -7.61548 0.0663668 -0)
(-0 -0.00400293 7.59686 0.00400293 -0 -0.0804566 -7.59686 0.0804566 -0)
(-0 -0.00347394 7.58086 0.00347394 -0 -0.0940677 -7.58086 0.0940677 -0)
(-0 -0.00283714 7.56804 0.00283714 -0 -0.106991 -7.56804 0.106991 -0)
(-0 -0.00225218 7.55825 0.00225218 -0 -0.119019 -7.55825 0.119019 -0)
(-0 -0.00184946 7.55078 0.00184946 -0 -0.129978 -7.55078 0.129978 -0)
(-0 -0.00171261 7.54459 0.00171261 -0 -0.139736 -7.54459 0.139736 -0)
(-0 -0.00186462 7.5386 0.00186462 -0 -0.148214 -7.5386 0.148214 -0)
(-0 -0.00227136 7.53189 0.00227136 -0 -0.15538 -7.53189 0.15538 -0)
(-0 -0.0028712 7.52382 0.0028712 -0 -0.161236 -7.52382 0.161236 -0)
(-0 -0.00362032 7.51405 0.00362032 -0 -0.165787 -7.51405 0.165787 -0)
(-0 -0.00453244 7.50235 0.00453244 -0 -0.169028 -7.50235 0.169028 -0)
(-0 -0.00571056 7.48839 0.00571056 -0 -0.170926 -7.48839 0.170926 -0)
(-0 -0.00731767 7.4715 0.00731767 -0 -0.171431 -7.4715 0.171431 -0)
(-0 -0.00954788 7.4507 0.00954788 -0 -0.170519 -7.4507 0.170519 -0)
(-0 -0.0126514 7.42466 0.0126514 -0 -0.168157 -7.42466 0.168157 -0)
(-0 -0.0168626 7.39161 0.0168626 -0 -0.164345 -7.39161 0.164345 -0)
(-0 -0.0223707 7.34966 0.0223707 -0 -0.159135 -7.34966 0.159135 -0)
(-0 -0.0292907 7.29682 0.0292907 -0 -0.152637 -7.29682 0.152637 -0)
(-0 -0.0376232 7.23135 0.0376232 -0 -0.145042 -7.23135 0.145042 -0)
(-0 -0.0472606 7.15189 0.0472606 -0 -0.136588 -7.15189 0.136588 -0)
(-0 -0.0578883 7.05761 0.0578883 -0 -0.127541 -7.05761 0.127541 -0)
(-0 -0.0689645 6.94857 0.0689645 -0 -0.118139 -6.94857 0.118139 -0)
(-0 -0.080319 6.82591 0.080319 -0 -0.108476 -6.82591 0.108476 -0)
(-0 -0.0933753 6.69031 0.0933753 -0 -0.0982215 -6.69031 0.0982215 -0)
(-0 -0.109535 6.53874 0.109535 -0 -0.0871009 -6.53874 0.0871009 -0)
(-0 -0.129084 6.36833 0.129084 -0 -0.0751034 -6.36833 0.0751034 -0)
(-0 -0.152545 6.1763 0.152545 -0 -0.062266 -6.1763 0.062266 -0)
(-0 -0.18066 5.9594 0.18066 -0 -0.0487333 -5.9594 0.0487333 -0)
(-0 -0.214028 5.71397 0.214028 -0 -0.0348101 -5.71397 0.0348101 -0)
(-0 -0.252718 5.43644 0.252718 -0 -0.0210205 -5.43644 0.0210205 -0)
(-0 -0.295891 5.12412 0.295891 -0 -0.0081286 -5.12412 0.0081286 -0)
(-0 -0.341466 4.77618 0.341466 -0 0.00291254 -4.77618 -0.00291254 -0)
(-0 -0.386088 4.39477 0.386088 -0 0.0111166 -4.39477 -0.0111166 -0)
(-0 -0.425722 3.98584 0.425722 -0 0.0157412 -3.98584 -0.0157412 -0)
(-0 -0.457084 3.55895 0.457084 -0 0.0165904 -3.55895 -0.0165904 -0)
(-0 -0.479729 3.12551 0.479729 -0 0.0143316 -3.12551 -0.0143316 -0)
(-0 -0.496819 2.69468 0.496819 -0 0.0104102 -2.69468 -0.0104102 -0)
(-0 -0.512827 2.27037 0.512827 -0 0.00635175 -2.27037 -0.00635175 -0)
(-0 -0.530906 1.85243 0.530906 -0 0.00317567 -1.85243 -0.00317567 -0)
(-0 -0.552906 1.43923 0.552906 -0 0.00122727 -1.43923 -0.00122727 -0)
(-0 -0.580938 1.02876 0.580938 -0 0.000298335 -1.02876 -0.000298335 -0)
(-0 -0.618867 0.618867 0.618867 -0 -2.21801e-07 -0.618867 2.21801e-07 -0)
(-0 -0.673738 0.208246 0.673738 -0 3.04867e-05 -0.208246 -3.04867e-05 -0)
(-0 -0.00138206 7.46811 0.00138206 -0 -0.00683848 -7.46811 0.00683848 -0)
(-0 -0.00391141 7.4601 0.00391141 -0 -0.0202856 -7.4601 0.0202856 -0)
(-0 -0.00582286 7.44608 0.00582286 -0 -0.0333259 -7.44608 0.0333259 -0)
(-0 -0.00691665 7.42863 0.00691665 -0 -0.0460168 -7.42863 0.0460168 -0)
(-0 -0.00718021 7.41026 0.00718021 -0 -0.0583446 -7.41026 0.0583446 -0)
(-0 -0.00675391 7.39299 0.00675391 -0 -0.0702323 -7.39299 0.0702323 -0)
(-0 -0.0058728 7.3781 0.0058728 -0 -0.0815627 -7.3781 0.0815627 -0)
(-0 -0.00481177 7.3661 0.00481177 -0 -0.0922018 -7.3661 0.0922018 -0)
(-0 -0.00383927 7.35685 0.00383927 -0 -0.102017 -7.35685 0.102017 -0)
(-0 -0.00317474 7.34967 0.00317474 -0 -0.110896 -7.34967 0.110896 -0)
(-0 -0.00295923 7.3436 0.00295923 -0 -0.11875 -7.3436 0.11875 -0)
(-0 -0.00323226 7.33763 0.00323226 -0 -0.125527 -7.33763 0.125527 -0)
(-0 -0.00393743 7.33089 0.00393743 -0 -0.1312 -7.33089 0.1312 -0)
(-0 -0.00497219 7.32277 0.00497219 -0 -0.135766 -7.32277 0.135766 -0)
(-0 -0.00626356 7.31292 0.00626356 -0 -0.139231 -7.31292 0.139231 -0)
(-0 -0.00783511 7.30107 0.00783511 -0 -0.141601 -7.30107 0.141601 -0)
(-0 -0.00985992 7.2869 0.00985992 -0 -0.142877 -7.2869 0.142877 -0)
(-0 -0.0126092 7.26974 0.0126092 -0 -0.143064 -7.26974 0.143064 -0)
(-0 -0.0164093 7.24866 0.0164093 -0 -0.142158 -7.24866 0.142158 -0)
(-0 -0.0216802 7.22243 0.0216802 -0 -0.140167 -7.22243 0.140167 -0)
(-0 -0.0288124 7.18944 0.0288124 -0 -0.13714 -7.18944 0.13714 -0)
(-0 -0.0381217 7.14795 0.0381217 -0 -0.133147 -7.14795 0.133147 -0)
(-0 -0.0497983 7.09618 0.0497983 -0 -0.12829 -7.09618 0.12829 -0)
(-0 -0.0638404 7.03256 0.0638404 -0 -0.122702 -7.03256 0.122702 -0)
(-0 -0.0800777 6.95588 0.0800777 -0 -0.11651 -6.95588 0.11651 -0)
(-0 -0.0980225 6.86535 0.0980225 -0 -0.109778 -6.86535 0.109778 -0)
(-0 -0.116812 6.76077 0.116812 -0 -0.102436 -6.76077 0.102436 -0)
(-0 -0.136158 6.64269 0.136158 -0 -0.0944009 -6.64269 0.0944009 -0)
(-0 -0.158393 6.51136 0.158393 -0 -0.0859889 -6.51136 0.0859889 -0)
(-0 -0.185805 6.36419 0.185805 -0 -0.0775597 -6.36419 0.0775597 -0)
(-0 -0.218846 6.1988 0.218846 -0 -0.0690212 -6.1988 0.0690212 -0)
(-0 -0.258401 6.01272 0.258401 -0 -0.0603877 -6.01272 0.0603877 -0)
(-0 -0.305731 5.80303 0.305731 -0 -0.0517946 -5.80303 0.0517946 -0)
(-0 -0.361873 5.56645 0.361873 -0 -0.0434456 -5.56645 0.0434456 -0)
(-0 -0.427039 5.29965 0.427039 -0 -0.0355727 -5.29965 0.0355727 -0)
(-0 -0.499999 4.9999 0.499999 -0 -0.0283864 -4.9999 0.0283864 -0)
(-0 -0.577505 4.66575 0.577505 -0 -0.0220018 -4.66575 0.0220018 -0)
(-0 -0.654109 4.29799 0.654109 -0 -0.0163624 -4.29799 0.0163624 -0)
(-0 -0.722904 3.90068 0.722904 -0 -0.0112268 -3.90068 0.0112268 -0)
(-0 -0.777723 3.48175 0.777723 -0 -0.00637733 -3.48175 0.00637733 -0)
(-0 -0.816974 3.05258 0.816974 -0 -0.00195745 -3.05258 0.00195745 -0)
(-0 -0.845738 2.62398 0.845738 -0 0.00121024 -2.62398 -0.00121024 -0)
(-0 -0.871867 2.20163 0.871867 -0 0.0023098 -2.20163 -0.0023098 -0)
(-0 -0.900767 1.78666 0.900767 -0 0.00175503 -1.78666 -0.00175503 -0)
(-0 -0.93505 1.37862 0.93505 -0 0.000752207 -1.37862 -0.000752207 -0)
(-0 -0.97678 0.97678 0.97678 -0 -8.14189e-07 -0.97678 8.14189e-07 -0)
(-0 -1.02876 0.580937 1.02876 -0 -0.000299291 -0.580937 0.000299291 -0)
(-0 -1.09447 0.192453 1.09447 -0 -7.86606e-05 -0.192453 7.86606e-05 -0)
(-0 -0.0018959 6.94185 0.0018959 -0 -0.00577226 -6.94185 0.00577226 -0)
(-0 -0.0053658 6.9355 0.0053658 -0 -0.0170718 -6.9355 0.0170718 -0)
(-0 -0.00798832 6.9244 0.00798832 -0 -0.0278773 -6.9244 0.0278773 -0)
(-0 -0.0094907 6.91063 0.0094907 -0 -0.0381794 -6.91063 0.0381794 -0)
(-0 -0.00985759 6.89617 0.00985759 -0 -0.0479602 -6.89617 0.0479602 -0)
(-0 -0.00928216 6.8826 0.00928216 -0 -0.0571833 -6.8826 0.0571833 -0)
(-0 -0.00808697 6.87094 0.00808697 -0 -0.0658016 -6.87094 0.0658016 -0)
(-0 -0.00664951 6.86157 0.00664951 -0 -0.0737624 -6.86157 0.0737624 -0)
(-0 -0.00533827 6.85432 0.00533827 -0 -0.0810133 -6.85432 0.0810133 -0)
(-0 -0.00445467 6.84863 0.00445467 -0 -0.0875068 -6.84863 0.0875068 -0)
(-0 -0.00419325 6.84372 0.00419325 -0 -0.0932035 -6.84372 0.0932035 -0)
(-0 -0.00461048 6.83874 0.00461048 -0 -0.0980742 -6.83874 0.0980742 -0)
(-0 -0.00563304 6.83294 0.00563304 -0 -0.1021 -6.83294 0.1021 -0)
(-0 -0.00712544 6.82579 0.00712544 -0 -0.105276 -6.82579 0.105276 -0)
(-0 -0.00899266 6.81692 0.00899266 -0 -0.107605 -6.81692 0.107605 -0)
(-0 -0.0112716 6.80602 0.0112716 -0 -0.109106 -6.80602 0.109106 -0)
(-0 -0.0142023 6.79271 0.0142023 -0 -0.109818 -6.79271 0.109818 -0)
(-0 -0.0181608 6.77636 0.0181608 -0 -0.109805 -6.77636 0.109805 -0)
(-0 -0.0235837 6.75609 0.0235837 -0 -0.10908 -6.75609 0.10908 -0)
(-0 -0.0310336 6.73095 0.0310336 -0 -0.107673 -6.73095 0.107673 -0)
(-0 -0.0410431 6.69967 0.0410431 -0 -0.105688 -6.69967 0.105688 -0)
(-0 -0.0540381 6.66091 0.0540381 -0 -0.103215 -6.66091 0.103215 -0)
(-0 -0.0702702 6.61333 0.0702702 -0 -0.100341 -6.61333 0.100341 -0)
(-0 -0.0897295 6.55576 0.0897295 -0 -0.0971468 -6.55576 0.0971468 -0)
(-0 -0.112205 6.48736 0.112205 -0 -0.0936627 -6.48736 0.0936627 -0)
(-0 -0.137139 6.4075 0.137139 -0 -0.0897759 -6.4075 0.0897759 -0)
(-0 -0.163558 6.31564 0.163558 -0 -0.0851079 -6.31564 0.0851079 -0)
(-0 -0.191164 6.21119 0.191164 -0 -0.0793208 -6.21119 0.0793208 -0)
(-0 -0.222879 6.09334 0.222879 -0 -0.0734514 -6.09334 0.0734514 -0)
(-0 -0.261588 5.96069 0.261588 -0 -0.0686137 -5.96069 0.0686137 -0)
(-0 -0.307958 5.81166 0.307958 -0 -0.0645552 -5.81166 0.0645552 -0)
(-0 -0.363259 5.64433 0.363259 -0 -0.0612686 -5.64433 0.0612686 -0)
(-0 -0.429224 5.45644 0.429224 -0 -0.0588986 -5.45644 0.0588986 -0)
(-0 -0.507319 5.24547 0.507319 -0 -0.0575539 -5.24547 0.0575539 -0)
(-0 -0.598018 5.00882 0.598018 -0 -0.0571567 -5.00882 0.0571567 -0)
(-0 -0.700037 4.74394 0.700037 -0 -0.0573035 -4.74394 0.0573035 -0)
(-0 -0.809566 4.44859 0.809566 -0 -0.0571339 -4.44859 0.0571339 -0)
(-0 -0.919792 4.12129 0.919792 -0 -0.0552657 -4.12129 0.0552657 -0)
(-0 -1.02133 3.76211 1.02133 -0 -0.0499558 -3.76211 0.0499558 -0)
(-0 -1.10438 3.37429 1.10438 -0 -0.0398767 -3.37429 0.0398767 -0)
(-0 -1.16451 2.96663 1.16451 -0 -0.0257056 -2.96663 0.0257056 -0)
(-0 -1.20745 2.55124 1.20745 -0 -0.0117049 -2.55124 0.0117049 -0)
(-0 -1.24432 2.137 1.24432 -0 -0.0029096 -2.137 0.0029096 -0)
(-0 -1.28305 1.72823 1.28305 -0 1.63236e-05 -1.72823 -1.63236e-05 -0)
(-0 -1.32716 1.32716 1.32716 -0 -1.5044e-06 -1.32716 1.5044e-06 -0)
(-0 -1.37862 0.93505 1.37862 -0 -0.000754543 -0.93505 0.000754543 -0)
(-0 -1.43923 0.552906 1.43923 -0 -0.00122889 -0.552906 0.00122889 -0)
(-0 -1.51046 0.182235 1.51046 -0 -0.000959053 -0.182235 0.000959053 -0)
(-0 -0.00227173 6.01218 0.00227173 -0 -0.00437665 -6.01218 0.00437665 -0)
(-0 -0.00642585 6.00814 0.00642585 -0 -0.0128941 -6.00814 0.0128941 -0)
(-0 -0.00955817 6.00115 0.00955817 -0 -0.0209011 -6.00115 0.0209011 -0)
(-0 -0.0113448 5.99257 0.0113448 -0 -0.0283448 -5.99257 0.0283448 -0)
(-0 -0.0117712 5.98366 0.0117712 -0 -0.0352021 -5.98366 0.0352021 -0)
(-0 -0.0110719 5.97545 0.0110719 -0 -0.0414685 -5.97545 0.0414685 -0)
(-0 -0.00963682 5.96853 0.00963682 -0 -0.0471519 -5.96853 0.0471519 -0)
(-0 -0.00792184 5.96309 0.00792184 -0 -0.0522641 -5.96309 0.0522641 -0)
(-0 -0.00637113 5.95897 0.00637113 -0 -0.0568157 -5.95897 0.0568157 -0)
(-0 -0.00534797 5.95574 0.00534797 -0 -0.060812 -5.95574 0.060812 -0)
(-0 -0.00508747 5.95281 0.00508747 -0 -0.0642515 -5.95281 0.0642515 -0)
(-0 -0.00566192 5.9496 0.00566192 -0 -0.0671274 -5.9496 0.0671274 -0)
(-0 -0.00699269 5.94554 0.00699269 -0 -0.0694295 -5.94554 0.0694295 -0)
(-0 -0.00893034 5.94018 0.00893034 -0 -0.0711519 -5.94018 0.0711519 -0)
(-0 -0.0113756 5.93313 0.0113756 -0 -0.0723017 -5.93313 0.0723017 -0)
(-0 -0.0143866 5.92401 0.0143866 -0 -0.0729048 -5.92401 0.0729048 -0)
(-0 -0.0182616 5.91239 0.0182616 -0 -0.0730175 -5.91239 0.0730175 -0)
(-0 -0.023463 5.89768 0.023463 -0 -0.0727303 -5.89768 0.0727303 -0)
(-0 -0.0304894 5.87918 0.0304894 -0 -0.0720679 -5.87918 0.0720679 -0)
(-0 -0.0399822 5.85623 0.0399822 -0 -0.0710804 -5.85623 0.0710804 -0)
(-0 -0.052574 5.82806 0.052574 -0 -0.0698891 -5.82806 0.0698891 -0)
(-0 -0.068757 5.79388 0.068757 -0 -0.0685844 -5.79388 0.0685844 -0)
(-0 -0.0888125 5.75296 0.0888125 -0 -0.0672443 -5.75296 0.0672443 -0)
(-0 -0.112714 5.7047 0.112714 -0 -0.0659164 -5.7047 0.0659164 -0)
(-0 -0.140236 5.64873 0.140236 -0 -0.0645925 -5.64873 0.0645925 -0)
(-0 -0.17089 5.58469 0.17089 -0 -0.0630889 -5.58469 0.0630889 -0)
(-0 -0.203946 5.51193 0.203946 -0 -0.0607668 -5.51193 0.0607668 -0)
(-0 -0.239393 5.42884 0.239393 -0 -0.0567548 -5.42884 0.0567548 -0)
(-0 -0.280106 5.33318 0.280106 -0 -0.0528824 -5.33318 0.0528824 -0)
(-0 -0.328982 5.22539 0.328982 -0 -0.0512703 -5.22539 0.0512703 -0)
(-0 -0.387066 5.10487 0.387066 -0 -0.0512376 -5.10487 0.0512376 -0)
(-0 -0.455996 4.97048 0.455996 -0 -0.0527938 -4.97048 0.0527938 -0)
(-0 -0.537822 4.82098 0.537822 -0 -0.0561761 -4.82098 0.0561761 -0)
(-0 -0.634328 4.65509 0.634328 -0 -0.0615202 -4.65509 0.0615202 -0)
(-0 -0.746365 4.47139 0.746365 -0 -0.068639 -4.47139 0.068639 -0)
(-0 -0.87313 4.26806 0.87313 -0 -0.0768324 -4.26806 0.0768324 -0)
(-0 -1.01134 4.04244 1.01134 -0 -0.0847 -4.04244 0.0847 -0)
(-0 -1.15453 3.7908 1.15453 -0 -0.0899445 -3.7908 0.0899445 -0)
(-0 -1.29264 3.50845 1.29264 -0 -0.0891797 -3.50845 0.0891797 -0)
(-0 -1.41251 3.19097 1.41251 -0 -0.0781717 -3.19097 0.0781717 -0)
(-0 -1.50411 2.83889 1.50411 -0 -0.0548148 -2.83889 0.0548148 -0)
(-0 -1.57037 2.46159 1.57037 -0 -0.0266668 -2.46159 0.0266668 -0)
(-0 -1.62391 2.0705 1.62391 -0 -0.00697167 -2.0705 0.00697167 -0)
(-0 -1.67494 1.67493 1.67494 -0 -2.10226e-06 -1.67493 2.10226e-06 -0)
(-0 -1.72824 1.28305 1.72824 -0 -2.00307e-05 -1.28305 2.00307e-05 -0)
(-0 -1.78666 0.900766 1.78666 -0 -0.00175819 -0.900766 0.00175819 -0)
(-0 -1.85243 0.530905 1.85243 -0 -0.00317821 -0.530905 0.00317821 -0)
(-0 -1.92658 0.174612 1.92658 -0 -0.00368474 -0.174612 0.00368474 -0)
(-0 -0.00248617 4.91898 0.00248617 -0 -0.00292999 -4.91898 0.00292999 -0)
(-0 -0.00702368 4.91684 0.00702368 -0 -0.00858521 -4.91684 0.00858521 -0)
(-0 -0.0104284 4.91326 0.0104284 -0 -0.0137843 -4.91326 0.0137843 -0)
(-0 -0.0123508 4.90899 0.0123508 -0 -0.0184607 -4.90899 0.0184607 -0)
(-0 -0.0127808 4.90474 0.0127808 -0 -0.0225877 -4.90474 0.0225877 -0)
(-0 -0.0119827 4.90102 0.0119827 -0 -0.0261772 -4.90102 0.0261772 -0)
(-0 -0.010391 4.89812 0.010391 -0 -0.0292646 -4.89812 0.0292646 -0)
(-0 -0.00851241 4.89603 0.00851241 -0 -0.031894 -4.89603 0.031894 -0)
(-0 -0.00683857 4.89458 0.00683857 -0 -0.0341076 -4.89458 0.0341076 -0)
(-0 -0.00577097 4.89344 0.00577097 -0 -0.0359386 -4.89344 0.0359386 -0)
(-0 -0.00557013 4.8922 0.00557013 -0 -0.0374084 -4.8922 0.0374084 -0)
(-0 -0.00632263 4.89043 0.00632263 -0 -0.0385278 -4.89043 0.0385278 -0)
(-0 -0.0079576 4.88771 0.0079576 -0 -0.0392993 -4.88771 0.0392993 -0)
(-0 -0.0103335 4.88364 0.0103335 -0 -0.039724 -4.88364 0.039724 -0)
(-0 -0.0133666 4.8778 0.0133666 -0 -0.0398107 -4.8778 0.0398107 -0)
(-0 -0.0171435 4.86973 0.0171435 -0 -0.0395827 -4.86973 0.0395827 -0)
(-0 -0.0220046 4.85896 0.0220046 -0 -0.0390802 -4.85896 0.0390802 -0)
(-0 -0.0284583 4.84497 0.0284583 -0 -0.0383466 -4.84497 0.0383466 -0)
(-0 -0.0370264 4.82728 0.0370264 -0 -0.0374445 -4.82728 0.0374445 -0)
(-0 -0.0483726 4.80544 0.0483726 -0 -0.0364528 -4.80544 0.0364528 -0)
(-0 -0.0631616 4.77908 0.0631616 -0 -0.0354326 -4.77908 0.0354326 -0)
(-0 -0.0818983 4.7479 0.0818983 -0 -0.0344419 -4.7479 0.0344419 -0)
(-0 -0.104859 4.71169 0.104859 -0 -0.033522 -4.71169 0.033522 -0)
(-0 -0.132 4.67033 0.132 -0 -0.0326673 -4.67033 0.0326673 -0)
(-0 -0.163097 4.62381 0.163097 -0 -0.0318406 -4.62381 0.0318406 -0)
(-0 -0.197805 4.57202 0.197805 -0 -0.030896 -4.57202 0.030896 -0)
(-0 -0.235858 4.51444 0.235858 -0 -0.029022 -4.51444 0.029022 -0)
(-0 -0.277934 4.44969 0.277934 -0 -0.0242247 -4.44969 0.0242247 -0)
(-0 -0.326181 4.37615 0.326181 -0 -0.0201077 -4.37615 0.0201077 -0)
(-0 -0.38284 4.29436 0.38284 -0 -0.0195372 -4.29436 0.0195372 -0)
(-0 -0.449563 4.20444 0.449563 -0 -0.0206017 -4.20444 0.0206017 -0)
(-0 -0.528211 4.10617 0.528211 -0 -0.0232603 -4.10617 0.0232603 -0)
(-0 -0.620894 3.99943 0.620894 -0 -0.0277076 -3.99943 0.0277076 -0)
(-0 -0.729513 3.88424 0.729513 -0 -0.0340244 -3.88424 0.0340244 -0)
(-0 -0.855303 3.76046 0.855303 -0 -0.0420725 -3.76046 0.0420725 -0)
(-0 -0.99831 3.62721 0.99831 -0 -0.0514921 -3.62721 0.0514921 -0)
(-0 -1.15674 3.48214 1.15674 -0 -0.0617105 -3.48214 0.0617105 -0)
(-0 -1.32626 3.32071 1.32626 -0 -0.071798 -3.32071 0.071798 -0)
(-0 -1.49921 3.13577 1.49921 -0 -0.0795846 -3.13577 0.0795846 -0)
(-0 -1.66275 2.91731 1.66275 -0 -0.0789354 -2.91731 0.0789354 -0)
(-0 -1.8011 2.6536 1.8011 -0 -0.0594271 -2.6536 0.0594271 -0)
(-0 -1.90929 2.34373 1.90929 -0 -0.0259115 -2.34373 0.0259115 -0)
(-0 -1.9962 1.9962 1.9962 -0 -2.29511e-06 -1.9962 2.29511e-06 -0)
(-0 -2.0705 1.62391 2.0705 -0 0.00696703 -1.62391 -0.00696703 -0)
(-0 -2.137 1.24432 2.137 -0 0.00290514 -1.24432 -0.00290514 -0)
(-0 -2.20163 0.871866 2.20163 -0 -0.00231395 -0.871866 0.00231395 -0)
(-0 -2.27037 0.512827 2.27037 -0 -0.00635548 -0.512827 0.00635548 -0)
(-0 -2.34594 0.168461 2.34594 -0 -0.00944826 -0.168461 0.00944826 -0)
(-0 -0.00259869 3.96204 0.00259869 -0 -0.00171726 -3.96204 0.00171726 -0)
(-0 -0.007324 3.96104 0.007324 -0 -0.00499446 -3.96104 0.00499446 -0)
(-0 -0.0108418 3.95952 0.0108418 -0 -0.00791635 -3.95952 0.00791635 -0)
(-0 -0.0127987 3.95785 0.0127987 -0 -0.0104217 -3.95785 0.0104217 -0)
(-0 -0.0131898 3.95639 0.0131898 -0 -0.0124818 -3.95639 0.0124818 -0)
(-0 -0.012303 3.95535 0.012303 -0 -0.0141078 -3.95535 0.0141078 -0)
(-0 -0.0106051 3.95479 0.0106051 -0 -0.0153349 -3.95479 0.0153349 -0)
(-0 -0.00863652 3.95462 0.00863652 -0 -0.0162072 -3.95462 0.0162072 -0)
(-0 -0.00691967 3.95464 0.00691967 -0 -0.0167683 -3.95464 0.0167683 -0)
(-0 -0.00588006 3.95455 0.00588006 -0 -0.0170553 -3.95455 0.0170553 -0)
(-0 -0.00579583 3.95404 0.00579583 -0 -0.0170969 -3.95404 0.0170969 -0)
(-0 -0.0067696 3.95279 0.0067696 -0 -0.0169126 -3.95279 0.0169126 -0)
(-0 -0.00874964 3.95042 0.00874964 -0 -0.0165126 -3.95042 0.0165126 -0)
(-0 -0.0116191 3.94653 0.0116191 -0 -0.0159 -3.94653 0.0159 -0)
(-0 -0.0153234 3.94068 0.0153234 -0 -0.0150776 -3.94068 0.0150776 -0)
(-0 -0.0199798 3.93236 0.0199798 -0 -0.0140523 -3.93236 0.0140523 -0)
(-0 -0.0259517 3.92108 0.0259517 -0 -0.0128371 -3.92108 0.0128371 -0)
(-0 -0.0337525 3.90643 0.0337525 -0 -0.0114365 -3.90643 0.0114365 -0)
(-0 -0.0439159 3.88808 0.0439159 -0 -0.00990422 -3.88808 0.00990422 -0)
(-0 -0.0571018 3.86574 0.0571018 -0 -0.00830136 -3.86574 0.00830136 -0)
(-0 -0.0739471 3.83932 0.0739471 -0 -0.00663395 -3.83932 0.00663395 -0)
(-0 -0.0949328 3.80882 0.0949328 -0 -0.00491207 -3.80882 0.00491207 -0)
(-0 -0.120313 3.77438 0.120313 -0 -0.00312671 -3.77438 0.00312671 -0)
(-0 -0.150031 3.73617 0.150031 -0 -0.00121072 -3.73617 0.00121072 -0)
(-0 -0.18389 3.69433 0.18389 -0 0.000907114 -3.69433 -0.000907114 -0)
(-0 -0.221678 3.64887 0.221678 -0 0.00324612 -3.64887 -0.00324612 -0)
(-0 -0.263359 3.59942 0.263359 -0 0.00574228 -3.59942 -0.00574228 -0)
(-0 -0.309634 3.54528 0.309634 -0 0.0085023 -3.54528 -0.0085023 -0)
(-0 -0.362589 3.48646 0.362589 -0 0.0110401 -3.48646 -0.0110401 -0)
(-0 -0.424322 3.42318 0.424322 -0 0.0136673 -3.42318 -0.0136673 -0)
(-0 -0.49634 3.35613 0.49634 -0 0.016356 -3.35613 -0.016356 -0)
(-0 -0.580481 3.286 0.580481 -0 0.0191086 -3.286 -0.0191086 -0)
(-0 -0.678725 3.21368 0.678725 -0 0.0217949 -3.21368 -0.0217949 -0)
(-0 -0.792967 3.14011 0.792967 -0 0.0240857 -3.14011 -0.0240857 -0)
(-0 -0.92479 3.06586 0.92479 -0 0.0252651 -3.06586 -0.0252651 -0)
(-0 -1.07519 2.99052 1.07519 -0 0.024041 -2.99052 -0.024041 -0)
(-0 -1.24413 2.91188 1.24413 -0 0.0185595 -2.91188 -0.0185595 -0)
(-0 -1.42984 2.82519 1.42984 -0 0.00689971 -2.82519 -0.00689971 -0)
(-0 -1.62833 2.7229 1.62833 -0 -0.0111318 -2.7229 0.0111318 -0)
(-0 -1.83273 2.59544 1.83273 -0 -0.0267761 -2.59544 0.0267761 -0)
(-0 -2.02757 2.42667 2.02757 -0 -0.0273298 -2.42667 0.0273298 -0)
(-0 -2.19846 2.19846 2.19846 -0 -1.79905e-06 -2.19846 1.79905e-06 -0)
(-0 -2.34373 1.90929 2.34373 -0 0.0259071 -1.90929 -0.0259071 -0)
(-0 -2.46159 1.57036 2.46159 -0 0.0266617 -1.57036 -0.0266617 -0)
(-0 -2.55124 1.20745 2.55124 -0 0.0116996 -1.20745 -0.0116996 -0)
(-0 -2.62398 0.845737 2.62398 -0 -0.00121557 -0.845737 0.00121557 -0)
(-0 -2.69468 0.496818 2.69468 -0 -0.0104154 -0.496818 0.0104154 -0)
(-0 -2.77064 0.163056 2.77064 -0 -0.0186094 -0.163056 0.0186094 -0)
(-0 -0.00264546 3.22639 0.00264546 -0 -0.000832358 -3.22639 0.000832358 -0)
(-0 -0.00743599 3.22616 0.00743599 -0 -0.00239004 -3.22616 0.00239004 -0)
(-0 -0.0109712 3.22594 0.0109712 -0 -0.00369219 -3.22594 0.00369219 -0)
(-0 -0.0129057 3.22588 0.0129057 -0 -0.00467886 -3.22588 0.00467886 -0)
(-0 -0.0132421 3.22607 0.0132421 -0 -0.00531985 -3.22607 0.00531985 -0)
(-0 -0.0122877 3.2265 0.0122877 -0 -0.00561918 -3.2265 0.00561918 -0)
(-0 -0.0105327 3.22711 0.0105327 -0 -0.00560226 -3.22711 0.00560226 -0)
(-0 -0.00854051 3.22772 0.00854051 -0 -0.00530411 -3.22772 0.00530411 -0)
(-0 -0.00685307 3.22813 0.00685307 -0 -0.00476183 -3.22813 0.00476183 -0)
(-0 -0.00591177 3.2281 0.00591177 -0 -0.00400998 -3.2281 0.00400998 -0)
(-0 -0.00600913 3.22737 0.00600913 -0 -0.00307777 -3.22737 0.00307777 -0)
(-0 -0.00726653 3.22567 0.00726653 -0 -0.00198566 -3.22567 0.00198566 -0)
(-0 -0.00965931 3.22268 0.00965931 -0 -0.000741611 -3.22268 0.000741611 -0)
(-0 -0.0131048 3.21802 0.0131048 -0 0.000658815 -3.21802 -0.000658815 -0)
(-0 -0.0175831 3.21123 0.0175831 -0 0.00222726 -3.21123 -0.00222726 -0)
(-0 -0.0232371 3.20183 0.0232371 -0 0.00397544 -3.20183 -0.00397544 -0)
(-0 -0.0304367 3.18939 0.0304367 -0 0.00590501 -3.18939 -0.00590501 -0)
(-0 -0.0396782 3.17357 0.0396782 -0 0.008013 -3.17357 -0.008013 -0)
(-0 -0.0514881 3.1542 0.0514881 -0 0.0102793 -3.1542 -0.0102793 -0)
(-0 -0.0664965 3.13117 0.0664965 -0 0.0126723 -3.13117 -0.0126723 -0)
(-0 -0.0852821 3.10461 0.0852821 -0 0.015185 -3.10461 -0.015185 -0)
(-0 -0.108282 3.07478 0.108282 -0 0.0178163 -3.07478 -0.0178163 -0)
(-0 -0.135726 3.04203 0.135726 -0 0.0205822 -3.04203 -0.0205822 -0)
(-0 -0.167566 3.00668 0.167566 -0 0.0235607 -3.00668 -0.0235607 -0)
(-0 -0.203658 2.96895 0.203658 -0 0.0268234 -2.96895 -0.0268234 -0)
(-0 -0.243927 2.92887 0.243927 -0 0.0303249 -2.92887 -0.0303249 -0)
(-0 -0.288515 2.8862 0.288515 -0 0.0334921 -2.8862 -0.0334921 -0)
(-0 -0.337981 2.84042 0.337981 -0 0.0350498 -2.84042 -0.0350498 -0)
(-0 -0.39405 2.79157 0.39405 -0 0.0376031 -2.79157 -0.0376031 -0)
(-0 -0.458576 2.74112 0.458576 -0 0.0432232 -2.74112 -0.0432232 -0)
(-0 -0.532889 2.69032 0.532889 -0 0.0502527 -2.69032 -0.0502527 -0)
(-0 -0.618653 2.64045 0.618653 -0 0.0582663 -2.64045 -0.0582663 -0)
(-0 -0.717699 2.59283 0.717699 -0 0.0667892 -2.59283 -0.0667892 -0)
(-0 -0.83201 2.5486 0.83201 -0 0.0749634 -2.5486 -0.0749634 -0)
(-0 -0.963709 2.50837 0.963709 -0 0.0813633 -2.50837 -0.0813633 -0)
(-0 -1.115 2.47166 1.115 -0 0.0839607 -2.47166 -0.0839607 -0)
(-0 -1.28785 2.43626 1.28785 -0 0.0803099 -2.43626 -0.0803099 -0)
(-0 -1.4832 2.3975 1.4832 -0 0.0677077 -2.3975 -0.0677077 -0)
(-0 -1.69906 2.34788 1.69906 -0 0.0419942 -2.34788 -0.0419942 -0)
(-0 -1.9327 2.27862 1.9327 -0 0.0121326 -2.27862 -0.0121326 -0)
(-0 -2.18019 2.18019 2.18019 -0 -1.43663e-06 -2.18019 1.43663e-06 -0)
(-0 -2.42667 2.02757 2.42667 -0 0.0273267 -2.02757 -0.0273267 -0)
(-0 -2.6536 1.8011 2.6536 -0 0.059423 -1.8011 -0.059423 -0)
(-0 -2.83889 1.50411 2.83889 -0 0.0548094 -1.50411 -0.0548094 -0)
(-0 -2.96663 1.16451 2.96663 -0 0.0256993 -1.16451 -0.0256993 -0)
(-0 -3.05258 0.816974 3.05258 -0 0.00195075 -0.816974 -0.00195075 -0)
(-0 -3.12551 0.479729 3.12551 -0 -0.0143386 -0.479729 0.0143386 -0)
(-0 -3.2012 0.15736 3.2012 -0 -0.0293848 -0.15736 0.0293848 -0)
(-0 -0.00263564 2.66407 0.00263564 -0 -0.000206608 -2.66407 0.000206608 -0)
(-0 -0.0073967 2.66441 0.0073967 -0 -0.00055357 -2.66441 0.00055357 -0)
(-0 -0.0108864 2.66508 0.0108864 -0 -0.000719612 -2.66508 0.000719612 -0)
(-0 -0.0127693 2.66607 0.0127693 -0 -0.000639502 -2.66607 0.000639502 -0)
(-0 -0.0130607 2.66726 0.0130607 -0 -0.000281673 -2.66726 0.000281673 -0)
(-0 -0.0120824 2.66849 0.0120824 -0 0.00035653 -2.66849 -0.00035653 -0)
(-0 -0.010339 2.66959 0.010339 -0 0.00125732 -2.66959 -0.00125732 -0)
(-0 -0.00840602 2.67033 0.00840602 -0 0.00239171 -2.67033 -0.00239171 -0)
(-0 -0.00683506 2.67051 0.00683506 -0 0.00372622 -2.67051 -0.00372622 -0)
(-0 -0.00607638 2.66994 0.00607638 -0 0.00522749 -2.66994 -0.00522749 -0)
(-0 -0.00643434 2.66843 0.00643434 -0 0.00686639 -2.66843 -0.00686639 -0)
(-0 -0.00805051 2.66574 0.00805051 -0 0.00862412 -2.66574 -0.00862412 -0)
(-0 -0.010931 2.66161 0.010931 -0 0.0104979 -2.66161 -0.0104979 -0)
(-0 -0.0150307 2.65568 0.0150307 -0 0.012502 -2.65568 -0.012502 -0)
(-0 -0.0203625 2.64755 0.0203625 -0 0.0146609 -2.64755 -0.0146609 -0)
(-0 -0.0270864 2.63678 0.0270864 -0 0.0169989 -2.63678 -0.0169989 -0)
(-0 -0.0355646 2.62303 0.0355646 -0 0.0195214 -2.62303 -0.0195214 -0)
(-0 -0.0462646 2.60608 0.0462646 -0 0.0222205 -2.60608 -0.0222205 -0)
(-0 -0.0596764 2.58589 0.0596764 -0 0.0250867 -2.58589 -0.0250867 -0)
(-0 -0.0763708 2.56255 0.0763708 -0 0.0280865 -2.56255 -0.0280865 -0)
(-0 -0.0968553 2.53638 0.0968553 -0 0.0311907 -2.53638 -0.0311907 -0)
(-0 -0.121515 2.50783 0.121515 -0 0.0343758 -2.50783 -0.0343758 -0)
(-0 -0.150561 2.47741 0.150561 -0 0.0376293 -2.47741 -0.0376293 -0)
(-0 -0.183975 2.44553 0.183975 -0 0.0410127 -2.44553 -0.0410127 -0)
(-0 -0.221681 2.4125 0.221681 -0 0.0445842 -2.4125 -0.0445842 -0)
(-0 -0.263712 2.37839 0.263712 -0 0.0483156 -2.37839 -0.0483156 -0)
(-0 -0.310356 2.34317 0.310356 -0 0.0519553 -2.34317 -0.0519553 -0)
(-0 -0.362223 2.3067 0.362223 -0 0.0552555 -2.3067 -0.0552555 -0)
(-0 -0.420285 2.26903 0.420285 -0 0.0595584 -2.26903 -0.0595584 -0)
(-0 -0.48581 2.23179 0.48581 -0 0.0653384 -2.23179 -0.0653384 -0)
(-0 -0.560232 2.1962 0.560232 -0 0.071751 -2.1962 -0.071751 -0)
(-0 -0.645145 2.16344 0.645145 -0 0.0781331 -2.16344 -0.0781331 -0)
(-0 -0.742378 2.13452 0.742378 -0 0.0837435 -2.13452 -0.0837435 -0)
(-0 -0.85411 2.11017 0.85411 -0 0.0876179 -2.11017 -0.0876179 -0)
(-0 -0.982985 2.09064 0.982985 -0 0.0885269 -2.09064 -0.0885269 -0)
(-0 -1.1322 2.07547 1.1322 -0 0.0850566 -2.07547 -0.0850566 -0)
(-0 -1.30551 2.06309 1.30551 -0 0.075821 -2.06309 -0.075821 -0)