/*--------------------------------*- C++ -*----------------------------------*\
| =========                 |                                                 |
| \\      /  F ield         | OpenFOAM: The Open Source CFD Toolbox           |
|  \\    /   O peration     | Version:  2412                                  |
|   \\  /    A nd           | Website:  www.openfoam.com                      |
|    \\/     M anipulation  |                                                 |
\*---------------------------------------------------------------------------*/
FoamFile
{
    version     2.0;
    format      ascii;
    arch        "LSB;label=32;scalar=64";
    class       volScalarField;
    location    "2130";
    object      p;
}
// * * * * * * * * * * * * * * * * * * * * * * * * * * * * * * * * * * * * * //

dimensions      [0 2 -2 0 0 0 0];

internalField   nonuniform List<scalar> 
2304
(
-3.22096e-10
1.43429e-06
4.19924e-06
8.34645e-06
1.39225e-05
2.09447e-05
2.93783e-05
3.9129e-05
5.00535e-05
6.19695e-05
7.46784e-05
8.79762e-05
0.000101673
0.000115599
0.000129608
0.000143564
0.000157347
0.000170822
0.000183844
0.000196299
0.00020804
0.000218947
0.000228894
0.000237795
0.000245602
0.000252328
0.000258079
0.000263059
0.00026758
0.000271326
0.000274151
0.000275923
0.00027652
0.000275833
0.000273795
0.000270431
0.000265914
0.000260613
0.000255111
0.000250129
0.000246406
0.000244318
0.000243562
0.000243495
0.000243627
0.000243735
0.000243769
0.000243762
-1.64525e-06
-2.37766e-07
2.57335e-06
6.77598e-06
1.24092e-05
1.94845e-05
2.79631e-05
3.77493e-05
4.86996e-05
6.06332e-05
7.33541e-05
8.6661e-05
0.000100367
0.000114302
0.000128321
0.000142288
0.000156082
0.000169568
0.000182601
0.000195068
0.000206829
0.000217764
0.000227755
0.00023672
0.000244615
0.000251455
0.000257337
0.000262437
0.000267044
0.000270852
0.000273723
0.000275529
0.00027615
0.000275489
0.000273498
0.000270228
0.000265867
0.000260786
0.000255539
0.000250772
0.000247146
0.000245023
0.000244131
0.000243883
0.000243849
0.00024384
0.000243808
0.000243769
-2.00458e-05
-1.86029e-05
-1.56776e-05
-1.13302e-05
-5.53925e-06
1.69276e-06
1.03175e-05
2.02344e-05
3.12997e-05
4.33357e-05
5.61517e-05
6.95525e-05
8.33569e-05
9.73982e-05
0.000111533
0.000125623
0.000139548
0.000153173
0.000166351
0.000178981
0.000190932
0.000202098
0.000212375
0.000221695
0.000230024
0.000237384
0.000243865
0.00024962
0.000254973
0.000259576
0.000263306
0.000266037
0.000267655
0.000268069
0.000267235
0.000265194
0.000262107
0.000258274
0.000254135
0.000250195
0.00024707
0.000245231
0.000244467
0.000244199
0.000244068
0.000243958
0.00024384
0.000243734
-5.36883e-05
-5.21405e-05
-4.92067e-05
-4.48336e-05
-3.89985e-05
-3.17044e-05
-2.30014e-05
-1.29937e-05
-1.82838e-06
1.03133e-05
2.32377e-05
3.67479e-05
5.06606e-05
6.48067e-05
7.90388e-05
9.32153e-05
0.000107209
0.00012088
0.000134082
0.000146713
0.000158643
0.000169776
0.000180018
0.000189317
0.000197657
0.000205076
0.000211676
0.000217654
0.000223527
0.000228817
0.000233417
0.000237253
0.000240268
0.000242431
0.000243753
0.000244306
0.000244233
0.000243742
0.000243083
0.000242417
0.000242135
0.000242669
0.000243588
0.00024414
0.000244213
0.000244068
0.000243848
0.000243626
-3.86318e-05
-3.72121e-05
-3.4635e-05
-3.06913e-05
-2.52916e-05
-1.83878e-05
-9.99995e-06
-2.22835e-07
1.07877e-05
2.28295e-05
3.56811e-05
4.91155e-05
6.29214e-05
7.69065e-05
9.09047e-05
0.000104758
0.000118321
0.000131442
0.000143977
0.000155766
0.000166639
0.00017647
0.000185133
0.000192557
0.000198726
0.000203679
0.000207515
0.00021049
0.000213424
0.00021572
0.000217333
0.000218335
0.000218837
0.000218987
0.000218974
0.000219013
0.000219321
0.000220115
0.000221631
0.000223906
0.000227582
0.000233242
0.000239163
0.000242879
0.00024414
0.000244199
0.000243883
0.000243494
6.82483e-05
6.92964e-05
7.14807e-05
7.49096e-05
7.97344e-05
8.60524e-05
9.38759e-05
0.000103125
0.000113641
0.00012521
0.000137587
0.000150522
0.000163781
0.000177153
0.000190461
0.00020354
0.000216241
0.000228406
0.000239902
0.000250519
0.000260045
0.00026832
0.000275168
0.000280481
0.000284199
0.000286307
0.000286773
0.000285328
0.000281625
0.000276622
0.000270569
0.000263786
0.000256626
0.000249454
0.000242583
0.000236187
0.000230245
0.000224608
0.000219259
0.000214123
0.000211974
0.000217662
0.000229281
0.000239163
0.000243588
0.000244467
0.000244131
0.000243561
0.000187908
0.000188871
0.000191066
0.000194446
0.000199126
0.000205173
0.000212588
0.000221293
0.000231142
0.000241942
0.000253473
0.000265507
0.000277838
0.000290276
0.000302669
0.000314876
0.000326778
0.000338238
0.000349119
0.000359274
0.000368512
0.000376696
0.000383655
0.000389264
0.000393422
0.000396039
0.000396955
0.000395357
0.000389096
0.000380829
0.000371093
0.00036023
0.000348536
0.000336256
0.000323533
0.00031035
0.000296499
0.000281622
0.000265214
0.000244447
0.00022022
0.000209009
0.000217662
0.000233242
0.000242669
0.000245231
0.000245022
0.000244317
0.000246236
0.000247395
0.000249691
0.000253155
0.000257848
0.000263795
0.000270972
0.000279295
0.00028863
0.000298805
0.00030963
0.000320909
0.000332462
0.000344129
0.00035578
0.000367287
0.000378557
0.000389467
0.00039987
0.000409684
0.000418742
0.000426945
0.000434135
0.000440189
0.000444989
0.000448421
0.000450385
0.000450712
0.00044847
0.00044433
0.000438409
0.000430684
0.000421057
0.000409417
0.000395703
0.000379997
0.000362543
0.000343815
0.000324812
0.000301761
0.000260483
0.00022022
0.000211974
0.000227582
0.000242135
0.000247069
0.000247145
0.000246406
0.000270525
0.00027174
0.000274017
0.000277442
0.000282057
0.000287877
0.000294869
0.000302944
0.000311971
0.000321783
0.000332198
0.000343032
0.000354113
0.000365285
0.000376419
0.000387383
0.000398082
0.000408388
0.000418148
0.000427289
0.000435626
0.000443076
0.000449464
0.000454661
0.000458539
0.000460981
0.000461938
0.000461776
0.000461139
0.000458831
0.000454545
0.0004481
0.000439346
0.000428221
0.000414841
0.000399573
0.000382978
0.000365759
0.000349739
0.000336178
0.000301761
0.000244447
0.000214123
0.000223907
0.000242417
0.000250195
0.000250771
0.000250128
0.0002919
0.000293066
0.000295326
0.000298709
0.000303245
0.000308933
0.000315735
0.000323559
0.000332273
0.000341717
0.000351718
0.000362101
0.000372704
0.000383374
0.000393983
0.00040439
0.000414502
0.000424183
0.000433271
0.0004417
0.000449248
0.000455849
0.000461299
0.000465455
0.00046817
0.000469321
0.00046883
0.000466901
0.000463904
0.000459143
0.000452501
0.00044401
0.000433807
0.000422155
0.000409451
0.000396211
0.000382877
0.000369626
0.000357764
0.000349739
0.000324812
0.000265214
0.000219259
0.000221631
0.000243083
0.000254135
0.000255539
0.000255111
0.000311071
0.000312215
0.000314457
0.000317791
0.000322229
0.000327759
0.000334329
0.000341846
0.000350181
0.000359182
0.000368688
0.000378538
0.00038858
0.000398668
0.000408677
0.000418455
0.000427912
0.000436903
0.000445246
0.000452886
0.000459547
0.000465185
0.000469544
0.000472463
0.000473789
0.000473399
0.000471232
0.000467433
0.000462223
0.000455393
0.000447065
0.00043749
0.000427028
0.000416134
0.000405323
0.000395127
0.00038584
0.000377129
0.000369627
0.00036576
0.000343816
0.000281622
0.000224608
0.000220116
0.000243743
0.000258274
0.000260786
0.000260613
0.000326223
0.000327362
0.000329574
0.000332843
0.000337163
0.000342506
0.000348811
0.000355981
0.000363893
0.000372403
0.000381366
0.000390633
0.000400067
0.000409525
0.000418883
0.000427977
0.000436725
0.000444958
0.000452462
0.000459206
0.000464837
0.000469373
0.000472462
0.000473917
0.000473602
0.000471436
0.000467433
0.000461858
0.000454971
0.000446854
0.000437811
0.000428254
0.00041868
0.000409619
0.000401583
0.000394995
0.000389946
0.000385841
0.000382878
0.00038298
0.000362545
0.0002965
0.000230246
0.000219322
0.000244234
0.000262108
0.000265867
0.000265914
0.000337714
0.000338841
0.000341013
0.000344203
0.000348386
0.000353518
0.00035953
0.000366322
0.000373778
0.000381762
0.000390147
0.000398797
0.000407585
0.000416374
0.000425038
0.000433391
0.000441363
0.000448749
0.000455297
0.000461054
0.000465538
0.000468967
0.000470759
0.000470665
0.000468584
0.000464501
0.000458576
0.000451396
0.000443325
0.000434609
0.000425684
0.000417069
0.000409323
0.000402965
0.000398398
0.00039581
0.000394996
0.000395129
0.000396213
0.000399576
0.000379999
0.000310351
0.000236189
0.000219015
0.000244308
0.000265196
0.000270229
0.000270432
0.000346287
0.000347394
0.000349515
0.000352611
0.000356637
0.000361531
0.00036722
0.000373599
0.000380562
0.000387982
0.000395751
0.000403742
0.000411841
0.000419913
0.000427823
0.000435355
0.000442459
0.000448907
0.000454405
0.00045923
0.000462563
0.0004649
0.000465458
0.000463916
0.000460226
0.000454376
0.000446564
0.000437934
0.000429181
0.000420582
0.000412587
0.000405749
0.000400607
0.000397581
0.000396875
0.000398399
0.000401586
0.000405326
0.000409454
0.000414844
0.000395706
0.000323536
0.000242586
0.000218978
0.000243756
0.000267238
0.000273501
0.000273797
0.00035241
0.000353494
0.000355554
0.000358537
0.000362382
0.000367011
0.00037234
0.000378269
0.000384697
0.000391512
0.000398619
0.000405908
0.000413268
0.00042056
0.000427634
0.000434234
0.000440415
0.000445951
0.000450433
0.000454311
0.000456195
0.000455508
0.000453411
0.000450155
0.000445873
0.000440379
0.000432751
0.000423205
0.000414219
0.000406419
0.000400112
0.000395742
0.000393746
0.000394375
0.000397582
0.000402966
0.000409622
0.000416138
0.00042216
0.000428225
0.000409422
0.000336262
0.000249459
0.000218991
0.000242436
0.000268073
0.000275493
0.000275837
0.000356379
0.000357432
0.00035942
0.000362271
0.00036591
0.000370242
0.000375177
0.000380617
0.000386469
0.000392634
0.000399036
0.000405575
0.000412137
0.00041857
0.000424725
0.000430325
0.00043573
0.000440383
0.000443466
0.000443467
0.000441445
0.000436049
0.000430364
0.000425393
0.000421433
0.000418482
0.000415082
0.000408178
0.000399881
0.000393434
0.000389416
0.000388016
0.000389446
0.000393747
0.00040061
0.000409326
0.000418684
0.000427033
0.000433813
0.000439352
0.000421064
0.000348543
0.000256633
0.000218843
0.000240274
0.000267661
0.000276155
0.000276526
0.000358403
0.000359419
0.000361321
0.000364021
0.000367425
0.000371429
0.000375934
0.000380846
0.000386082
0.000391556
0.00039721
0.000402945
0.000408637
0.000414169
0.000419457
0.000424166
0.000428608
0.000429954
0.000428191
0.000421505
0.000413969
0.000406399
0.000399997
0.000395167
0.000391947
0.000390486
0.00039096
0.000390833
0.000386922
0.000382691
0.000381309
0.000383124
0.000388017
0.000395744
0.000405752
0.000417074
0.00042826
0.000437496
0.000444017
0.000448108
0.000430692
0.00036024
0.000263796
0.000218343
0.00023726
0.000266044
0.000275536
0.00027593
0.000358643
0.000359616
0.000361416
0.000363941
0.000367084
0.000370726
0.000374766
0.000379113
0.000383697
0.000388439
0.000393297
0.000398156
0.000402957
0.000407749
0.000412303
0.000415605
0.000414666
0.000408808
0.000399622
0.000389508
0.000380466
0.000373721
0.000368725
0.000365285
0.000363293
0.000362848
0.000364681
0.000369474
0.000373539
0.000374647
0.000376373
0.00038131
0.000389417
0.000400114
0.000412591
0.000425689
0.000437818
0.000447073
0.00045251
0.000454554
0.00043842
0.000371106
0.000270582
0.000217343
0.000233426
0.000263315
0.000273733
0.000274161
0.000357218
0.000358143
0.000359824
0.000362149
0.000365002
0.000368252
0.000371794
0.000375544
0.000379441
0.000383405
0.000387396
0.000391374
0.000395511
0.000399564
0.000401155
0.00039832
0.000388043
0.000376048
0.000364117
0.000354644
0.000347299
0.000342014
0.000338238
0.000335977
0.000335341
0.000336643
0.000340428
0.000347481
0.00035768
0.000367278
0.000374647
0.000382694
0.000393438
0.000406423
0.000420586
0.000434616
0.000446862
0.000455402
0.000459154
0.000458843
0.000444344
0.000380846
0.000276638
0.000215732
0.000228828
0.000259587
0.000270864
0.000271338
0.000354212
0.000355078
0.000356626
0.000358727
0.000361266
0.000364097
0.000367114
0.000370239
0.000373409
0.000376525
0.000379658
0.000383051
0.000386441
0.000386093
0.000379424
0.000366739
0.000351973
0.000339007
0.000328646
0.000320789
0.000314898
0.000310884
0.000308342
0.000307401
0.000308382
0.000311789
0.000318211
0.000327991
0.000341393
0.000357675
0.000373537
0.000386925
0.000399886
0.000414225
0.000429187
0.000443332
0.00045498
0.000462233
0.000463916
0.000461152
0.000448486
0.000389116
0.000281644
0.000213439
0.00022354
0.000254986
0.000267059
0.000267595
0.000349678
0.000350478
0.000351877
0.000353735
0.000355941
0.000358336
0.000360809
0.000363275
0.000365663
0.000367946
0.000370572
0.000373242
0.000370985
0.000360658
0.000344954
0.000328084
0.000314159
0.000302923
0.000294321
0.000288102
0.000283717
0.000281029
0.000279861
0.000280491
0.000283423
0.000289273
0.000298589
0.00031159
0.000327985
0.000347467
0.000369458
0.000390828
0.000408185
0.000423214
0.000437943
0.000451405
0.000461868
0.000467445
0.000466914
0.000461791
0.00045073
0.000395379
0.00028535
0.000210508
0.000217669
0.000249636
0.000262454
0.000263076
0.000343662
0.00034439
0.00034563
0.000347231
0.000349093
0.00035104
0.000352941
0.000354714
0.000356378
0.000358185
0.000360113
0.000356067
0.000342307
0.000323724
0.000305276
0.000289902
0.00027782
0.000268545
0.000261873
0.000257365
0.000254537
0.000253296
0.000253711
0.000256217
0.000261433
0.00027
0.000282368
0.000298583
0.000318198
0.000340408
0.000364653
0.000390934
0.000415079
0.000432766
0.000446577
0.000458587
0.000467444
0.000471245
0.000468845
0.000461955
0.000450403
0.000396978
0.000286798
0.000207535
0.000211693
0.000243883
0.000257356
0.000258098
0.000336217
0.000336874
0.000337952
0.000339285
0.000340796
0.000342271
0.000343584
0.000344764
0.000346057
0.000347066
0.000341409
0.000324551
0.000303257
0.000283273
0.000266617
0.000253474
0.000243723
0.000236719
0.000232068
0.000229287
0.000228053
0.000228415
0.000230665
0.000235354
0.000243133
0.000254575
0.000269993
0.00028926
0.000311769
0.000336617
0.000362816
0.000390443
0.000418454
0.000440386
0.000454395
0.000464515
0.000471449
0.000473413
0.000469337
0.000460999
0.00044844
0.000396063
0.000286334
0.000203702
0.000205095
0.000237403
0.000251475
0.000252349
0.000327434
0.000328024
0.000328939
0.000329991
0.000331125
0.000332137
0.000333006
0.000333875
0.000333843
0.000326867
0.000307387
0.000283688
0.000262262
0.000244435
0.000230385
0.000219996
0.000212831
0.000208137
0.000205435
0.000204348
0.000204767
0.000206912
0.000211232
0.000218329
0.000228811
0.000243129
0.000261423
0.000283404
0.000308356
0.000335309
0.000363255
0.000391898
0.000421393
0.000445873
0.000460244
0.000468598
0.000473614
0.000473803
0.000468186
0.000458557
0.000445008
0.000393447
0.000284227
0.00019875
0.000197677
0.000230044
0.000244636
0.000245623
0.000317456
0.00031798
0.000318722
0.000319462
0.00032024
0.000321012
0.000321622
0.000320455
0.000311697
0.000290615
0.000264967
0.000242299
0.000223425
0.000208594
0.0001977
0.000190281
0.000185664
0.000183121
0.000182232
0.000182809
0.000184951
0.000189031
0.000195575
0.000205169
0.000218327
0.000235348
0.000256204
0.000280469
0.000307371
0.000335939
0.00036524
0.000395111
0.000425348
0.000450151
0.000463933
0.000470679
0.00047393
0.000472477
0.00046547
0.000454678
0.000440208
0.000389288
0.000280509
0.000192581
0.000189336
0.000221714
0.00023674
0.000237816
0.000306469
0.000306942
0.000307518
0.000307969
0.00030866
0.000309233
0.000306729
0.000296163
0.000273744
0.000246877
0.000223261
0.000203534
0.000188057
0.000176777
0.000169207
0.000164631
0.000162325
0.000161699
0.000162489
0.00016471
0.000168635
0.00017473
0.000183538
0.000195574
0.000211229
0.000230658
0.000253696
0.000279836
0.000308308
0.000338194
0.000368673
0.000399936
0.000430317
0.000453407
0.000465474
0.000470772
0.000472473
0.000469557
0.000461313
0.00044948
0.000434152
0.000383677
0.000275195
0.000185155
0.000180036
0.000212393
0.000227774
0.000228914
0.000294762
0.000295311
0.000295867
0.000296128
0.000296539
0.000292306
0.000279627
0.000256359
0.000229057
0.000204815
0.000184511
0.000168592
0.000157067
0.000149454
0.000145007
0.000142949
0.000142644
0.000143702
0.000146058
0.000149906
0.000155635
0.000163742
0.000174732
0.000189032
0.00020691
0.000228407
0.00025328
0.000281002
0.000310847
0.000341967
0.000373665
0.000406336
0.000436004
0.000455503
0.000464915
0.000468979
0.000469384
0.000465196
0.000455861
0.000443089
0.00042696
0.000376716
0.000268343
0.00017649
0.000169792
0.000202114
0.000217781
0.000218965
0.000282918
0.000283601
0.000284068
0.000282697
0.000276603
0.00026121
0.000237626
0.000210674
0.000186427
0.000165885
0.000149817
0.000138257
0.000130755
0.000126552
0.000124828
0.00012489
0.000126282
0.000128836
0.000132672
0.000138115
0.000145609
0.000155636
0.000168639
0.000184955
0.000204765
0.000228044
0.000254519
0.000283687
0.000314858
0.000347249
0.000380402
0.000413914
0.000441426
0.000456199
0.00046257
0.000465545
0.000464844
0.000459555
0.000449257
0.000435637
0.000418754
0.000368528
0.000260064
0.000166656
0.000158656
0.000190944
0.000206843
0.000208055
0.000270325
0.00026883
0.000265336
0.000257445
0.000239791
0.000216529
0.000190913
0.000167345
0.000147093
0.000131174
0.000119856
0.000112678
0.000108889
0.000107639
0.000108178
0.000109985
0.000112823
0.000116732
0.000121975
0.000128953
0.000138117
0.000149909
0.000164714
0.000182814
0.000204349
0.000229279
0.000257346
0.000288072
0.000320747
0.000354592
0.000389446
0.000421457
0.000443455
0.000454318
0.000459236
0.00046106
0.000459212
0.000452892
0.000441706
0.000427297
0.000409692
0.000359285
0.000250533
0.000155778
0.000146723
0.00017899
0.000195078
0.000196309
0.000245941
0.000240372
0.000229799
0.000213847
0.000191995
0.000168848
0.000146683
0.000127279
0.000111969
0.000101194
9.4622e-05
9.14818e-05
9.09067e-05
9.20985e-05
9.44729e-05
9.77224e-05
0.000101823
0.000106983
0.000113558
0.000121978
0.000132678
0.000146065
0.000162494
0.000182236
0.000205435
0.000232059
0.000261852
0.00029429
0.000328603
0.000364063
0.000399575
0.000428172
0.000443465
0.000450435
0.000454407
0.0004553
0.000452465
0.000445249
0.000433274
0.000418151
0.000399874
0.000349125
0.00023991
0.000143984
0.000134088
0.000166356
0.000182606
0.000183849
0.000201891
0.000194772
0.000181511
0.000163374
0.00014348
0.000123417
0.000105427
9.12293e-05
8.1431e-05
7.57959e-05
7.36181e-05
7.39952e-05
7.60903e-05
7.92554e-05
8.31181e-05
8.75924e-05
9.28333e-05
9.91616e-05
0.000106985
0.000116735
0.000128842
0.00014371
0.000161705
0.000183124
0.000208137
0.000236709
0.000268523
0.000302891
0.000338967
0.000376002
0.000408772
0.000429943
0.000440385
0.000445953
0.000448908
0.000448751
0.000444959
0.000436904
0.000424183
0.000408388
0.000389468
0.000338239
0.000228408
0.000131444
0.000120882
0.000153174
0.00016957
0.000170823
0.000150286
0.000143053
0.000130235
0.000113664
9.62452e-05
8.0331e-05
6.77944e-05
5.94717e-05
5.52271e-05
5.43942e-05
5.60873e-05
5.94198e-05
6.36871e-05
6.84475e-05
7.35516e-05
7.91078e-05
8.5406e-05
9.28353e-05
0.000101828
0.000112829
0.000126288
0.00014265
0.00016233
0.000185666
0.000212828
0.000243712
0.0002778
0.00031413
0.000351936
0.000388011
0.000414652
0.000428605
0.000435728
0.000440414
0.000442459
0.000441362
0.000436724
0.00042791
0.000414499
0.000398079
0.000378554
0.000326774
0.000216238
0.000118319
0.000107207
0.000139546
0.00015608
0.000157344
9.70333e-05
8.96909e-05
7.76978e-05
6.35855e-05
5.05411e-05
4.03533e-05
3.40648e-05
3.17217e-05
3.27211e-05
3.61758e-05
4.11732e-05
4.69433e-05
5.29769e-05
5.90593e-05
6.52489e-05
7.18058e-05
7.91086e-05
8.75951e-05
9.77283e-05
0.000109994
0.000124898
0.000142954
0.000164635
0.000190283
0.000219992
0.000253464
0.000289885
0.000328061
0.000366711
0.000398297
0.000415598
0.000424166
0.000430324
0.000434232
0.000435353
0.000433389
0.000427974
0.00041845
0.000404385
0.000387377
0.000367281
0.000314869
0.000203532
0.000104751
9.321e-05
0.000125618
0.000142282
0.000143557
3.95299e-05
3.3379e-05
2.4204e-05
1.46747e-05
7.56962e-06
3.93604e-06
4.04018e-06
7.38756e-06
1.31127e-05
2.02684e-05
2.80267e-05
3.57984e-05
4.32988e-05
5.05309e-05
5.77237e-05
6.52498e-05
7.35529e-05
8.3121e-05
9.44781e-05
0.000108186
0.000124838
0.000145015
0.000169211
0.000197701
0.000230382
0.000266609
0.000305263
0.000344939
0.000379409
0.000401147
0.0004123
0.000419454
0.000424723
0.000427632
0.000427821
0.000425034
0.000418878
0.000408671
0.000393976
0.000376411
0.000355771
0.000302659
0.000190449
9.08948e-05
7.90308e-05
0.000111524
0.000128312
0.000129598
-1.92022e-05
-2.30946e-05
-2.7886e-05
-3.14423e-05
-3.18715e-05
-2.88367e-05
-2.26727e-05
-1.42049e-05
-4.40174e-06
5.8453e-06
1.58667e-05
2.52906e-05
3.40545e-05
4.23486e-05
5.05317e-05
5.90614e-05
6.84493e-05
7.92578e-05
9.21028e-05
0.000107645
0.000126559
0.000149462
0.000176783
0.000208597
0.000244434
0.000283269
0.000323719
0.000360652
0.000386087
0.000399559
0.000407746
0.000414167
0.000418568
0.000420557
0.000419909
0.000416369
0.000409519
0.000398661
0.000383366
0.000365276
0.000344119
0.000290264
0.000177139
7.68947e-05
6.47971e-05
9.73884e-05
0.000114291
0.000115588
-7.58434e-05
-7.67168e-05
-7.62468e-05
-7.33235e-05
-6.71053e-05
-5.78904e-05
-4.64115e-05
-3.36393e-05
-2.05229e-05
-7.81891e-06
4.00618e-06
1.48042e-05
2.47083e-05
3.40544e-05
4.32997e-05
5.298e-05
6.36908e-05
7.60925e-05
9.09095e-05
0.000108894
0.000130761
0.000157073
0.000188063
0.000223429
0.000262265
0.000303259
0.000342308
0.000370982
0.000386436
0.000395507
0.000402955
0.000408635
0.000412135
0.000413265
0.000411837
0.00040758
0.000400061
0.000388573
0.000372695
0.000354103
0.000332452
0.000277825
0.000163766
6.29087e-05
5.06506e-05
8.33468e-05
0.000100356
0.000101662
-0.000126483
-0.000124076
-0.000118308
-0.000109311
-9.72624e-05
-8.29465e-05
-6.73075e-05
-5.13177e-05
-3.58035e-05
-2.13303e-05
-8.14511e-06
3.80505e-06
1.48038e-05
2.52894e-05
3.57977e-05
4.69448e-05
5.9424e-05
7.39987e-05
9.14852e-05
0.000112683
0.000138262
0.000168596
0.00020354
0.000242306
0.000283694
0.000324554
0.000356067
0.000373241
0.000383049
0.000391372
0.000398154
0.000402942
0.000405572
0.000405904
0.000403738
0.000398792
0.000390627
0.000378531
0.000362093
0.000343023
0.000320899
0.000265495
0.000150508
4.91035e-05
3.67383e-05
6.95429e-05
8.66508e-05
8.79657e-05
-0.000166497
-0.000161233
-0.000151132
-0.000137443
-0.000121184
-0.000103458
-8.52649e-05
-6.74583e-05
-5.06544e-05
-3.51834e-05
-2.10828e-05
-8.14515e-06
4.00652e-06
1.58663e-05
2.80251e-05
4.11723e-05
5.60893e-05
7.36206e-05
9.4624e-05
0.000119861
0.000149823
0.000184518
0.000223268
0.000264973
0.000307391
0.000341411
0.000360114
0.000370572
0.000379656
0.000387393
0.000393294
0.000397208
0.000399033
0.000398615
0.000395745
0.000390142
0.000381361
0.000368682
0.000351711
0.00033219
0.000309622
0.000253462
0.000137575
3.56708e-05
2.32294e-05
5.61434e-05
7.33454e-05
7.46694e-05
-0.000191115
-0.000184125
-0.000171641
-0.000155597
-0.000137549
-0.000118741
-0.000100079
-8.21861e-05
-6.53948e-05
-4.97743e-05
-3.51838e-05
-2.13316e-05
-7.81973e-06
5.84601e-06
2.02694e-05
3.61753e-05
5.43938e-05
7.57973e-05
0.000101196
0.000131177
0.000165891
0.000204821
0.000246882
0.000290617
0.000326867
0.000347067
0.000358188
0.000367947
0.000376523
0.000383402
0.000388437
0.000391553
0.000392631
0.000391508
0.000387978
0.000381757
0.000372398
0.000359177
0.000341711
0.000321777
0.000298799
0.000241934
0.000125201
2.28217e-05
1.03069e-05
4.33295e-05
6.06267e-05
6.19628e-05
-0.0001962
-0.000189233
-0.000177176
-0.000161975
-0.000145296
-0.000128301
-0.000111665
-9.56704e-05
-8.0311e-05
-6.53945e-05
-5.06539e-05
-3.58046e-05
-2.05247e-05
-4.40218e-06
1.31135e-05
3.27216e-05
5.52262e-05
8.1431e-05
0.000111971
0.000147097
0.00018643
0.000229059
0.000273745
0.000311697
0.000333844
0.000346059
0.000356379
0.000365662
0.000373406
0.000379438
0.000383694
0.00038608
0.000386466
0.000384694
0.000380558
0.000373774
0.00036389
0.000350178
0.000332269
0.000311967
0.000288626
0.000231137
0.000113636
1.07826e-05
-1.8325e-06
3.12957e-05
4.86955e-05
5.00494e-05
-0.000179182
-0.000174447
-0.000166259
-0.000155749
-0.000144117
-0.000132186
-0.000120265
-0.000108222
-9.56711e-05
-8.21868e-05
-6.74576e-05
-5.13175e-05
-3.36407e-05
-1.42055e-05
7.38888e-06
3.17236e-05
5.94722e-05
9.12287e-05
0.000127279
0.000167344
0.000210672
0.000256359
0.000296165
0.000320456
0.000333875
0.000344764
0.000354714
0.000363274
0.000370237
0.00037554
0.000379109
0.000380844
0.000380615
0.000378267
0.000373596
0.000366319
0.000355979
0.000341843
0.000323556
0.000302941
0.000279293
0.000221291
0.000103122
-2.24928e-07
-1.29952e-05
2.02329e-05
3.77478e-05
3.91275e-05
-0.000139684
-0.000139648
-0.000139117
-0.000137451
-0.000134713
-0.000131111
-0.000126491
-0.000120265
-0.000111665
-0.00010008
-8.52652e-05
-6.7307e-05
-4.64118e-05
-2.26737e-05
4.03973e-06
3.40656e-05
6.77954e-05
0.000105426
0.000146682
0.00019091
0.000237621
0.000279625
0.00030673
0.000321622
0.000333006
0.000343583
0.00035294
0.000360808
0.000367112
0.00037179
0.000374763
0.000375932
0.000375175
0.000372337
0.000367217
0.000359528
0.00034881
0.000334328
0.000315734
0.000294868
0.000270971
0.000212588
9.3876e-05
-9.99976e-06
-2.30012e-05
1.03177e-05
2.79635e-05
2.93786e-05
-7.96274e-05
-8.6716e-05
-9.75367e-05
-0.00010873
-0.000118512
-0.000126203
-0.000131112
-0.000132187
-0.000128301
-0.000118741
-0.000103458
-8.29467e-05
-5.78901e-05
-2.88359e-05
3.93614e-06
4.03526e-05
8.03306e-05
0.000123415
0.000168842
0.000216521
0.000261204
0.000292306
0.000309234
0.000321012
0.000332137
0.000342271
0.000351039
0.000358335
0.000364095
0.00036825
0.000370724
0.000371427
0.000370241
0.00036701
0.000361531
0.000353518
0.000342506
0.000327759
0.000308933
0.000287878
0.000263796
0.000205175
8.60546e-05
-1.83858e-05
-3.17027e-05
1.69442e-06
1.94863e-05
2.09466e-05
-3.17145e-06
-1.92406e-05
-4.43306e-05
-7.16895e-05
-9.70516e-05
-0.000118513
-0.000134714
-0.000144118
-0.000145297
-0.000137549
-0.000121183
-9.72622e-05
-6.71051e-05
-3.18711e-05
7.57071e-06
5.05419e-05
9.62437e-05
0.000143477
0.000191988
0.000239784
0.000276601
0.00029654
0.00030866
0.000320239
0.000331125
0.000340795
0.000349092
0.000355939
0.000361263
0.000365
0.000367082
0.000367424
0.000365908
0.000362381
0.000356636
0.000348386
0.000337164
0.00032223
0.000303245
0.000282058
0.000257849
0.000199128
7.97373e-05
-2.52889e-05
-3.89962e-05
-5.53695e-06
1.24116e-05
1.3925e-05
8.30276e-05
5.73597e-05
1.67409e-05
-2.8664e-05
-7.16903e-05
-0.000108732
-0.000137453
-0.000155751
-0.000161976
-0.000155597
-0.000137441
-0.00010931
-7.33233e-05
-3.14422e-05
1.46756e-05
6.35857e-05
0.000113663
0.00016337
0.000213838
0.000257436
0.000282695
0.00029613
0.000307971
0.000319463
0.000329991
0.000339285
0.00034723
0.000353734
0.000358725
0.000362147
0.00036394
0.000364021
0.000362272
0.000358537
0.000352611
0.000344203
0.000332843
0.000317791
0.00029871
0.000277443
0.000253157
0.000194448
7.49123e-05
-3.06887e-05
-4.48313e-05
-1.1328e-05
6.77821e-06
8.34871e-06
0.000169268
0.00013497
7.98636e-05
1.67403e-05
-4.4332e-05
-9.75388e-05
-0.000139119
-0.000166261
-0.000177176
-0.000171641
-0.000151131
-0.000118307
-7.62463e-05
-2.78872e-05
2.42026e-05
7.76975e-05
0.000130235
0.00018151
0.000229795
0.000265332
0.000284067
0.000295867
0.000307519
0.000318724
0.000328941
0.000337953
0.000345629
0.000351875
0.000356624
0.000359822
0.000361415
0.00036132
0.00035942
0.000355554
0.000349516
0.000341013
0.000329573
0.000314457
0.000295326
0.000274018
0.000249691
0.000191067
7.14826e-05
-3.46329e-05
-4.92049e-05
-1.56759e-05
2.57507e-06
4.20095e-06
0.000241775
0.000201176
0.000134969
5.73589e-05
-1.92421e-05
-8.67182e-05
-0.000139651
-0.000174449
-0.000189234
-0.000184124
-0.000161231
-0.000124076
-7.67177e-05
-2.30946e-05
3.33784e-05
8.96895e-05
0.000143052
0.000194771
0.000240372
0.000268828
0.0002836
0.000295311
0.000306943
0.000317983
0.000328028
0.000336876
0.00034439
0.000350476
0.000355075
0.000358141
0.000359617
0.00035942
0.000357432
0.000353493
0.000347394
0.000338841
0.000327362
0.000312215
0.000293065
0.00027174
0.000247395
0.000188871
6.92976e-05
-3.72108e-05
-5.21393e-05
-1.86018e-05
-2.36595e-07
1.43544e-06
0.000285523
0.000241775
0.000169268
8.30268e-05
-3.17295e-06
-7.96296e-05
-0.000139687
-0.000179184
-0.000196201
-0.000191115
-0.000166494
-0.000126482
-7.58447e-05
-1.92025e-05
3.95304e-05
9.70334e-05
0.000150287
0.000201891
0.000245938
0.000270324
0.000282919
0.000294761
0.00030647
0.000317459
0.000327438
0.000336218
0.000343661
0.000349676
0.00035421
0.000357217
0.000358642
0.000358402
0.000356379
0.000352411
0.000346287
0.000337714
0.000326223
0.000311071
0.000291899
0.000270525
0.000246235
0.000187908
6.82485e-05
-3.8631e-05
-5.36873e-05
-2.00449e-05
-1.64465e-06
-1.95917e-10
)
;

boundaryField
{
    inlet
    {
        type            cyclic;
    }
    outlet
    {
        type            cyclic;
    }
    walls
    {
        type            zeroGradient;
    }
    symPlanes
    {
        type            symmetry;
    }
}


// ************************************************************************* //
