/*--------------------------------*- C++ -*----------------------------------*\
| =========                 |                                                 |
| \\      /  F ield         | OpenFOAM: The Open Source CFD Toolbox           |
|  \\    /   O peration     | Version:  2412                                  |
|   \\  /    A nd           | Website:  www.openfoam.com                      |
|    \\/     M anipulation  |                                                 |
\*---------------------------------------------------------------------------*/
FoamFile
{
    version     2.0;
    format      ascii;
    arch        "LSB;label=32;scalar=64";
    class       surfaceScalarField;
    location    "2130";
    object      phi;
}
// * * * * * * * * * * * * * * * * * * * * * * * * * * * * * * * * * * * * * //

dimensions      [0 3 -1 0 0 0 0];

oriented        oriented;

internalField   nonuniform List<scalar> 
4512
(
-7.73776e-09
7.75587e-09
-1.53166e-08
7.57873e-09
-2.28877e-08
7.57106e-09
-3.04927e-08
7.60477e-09
-3.80949e-08
7.60224e-09
-4.55977e-08
7.50274e-09
-5.28716e-08
7.2738e-09
-5.97798e-08
6.90805e-09
-6.61963e-08
6.41643e-09
-7.20219e-08
5.82562e-09
-7.71883e-08
5.16637e-09
-8.16623e-08
4.47395e-09
-8.54354e-08
3.77317e-09
-8.85117e-08
3.07632e-09
-9.08867e-08
2.37506e-09
-9.25422e-08
1.65552e-09
-9.34297e-08
8.87613e-10
-9.35052e-08
7.55321e-11
-9.27484e-08
-7.56728e-10
-9.11109e-08
-1.63748e-09
-8.8591e-08
-2.51986e-09
-8.52106e-08
-3.3804e-09
-8.10596e-08
-4.15104e-09
-7.62813e-08
-4.77823e-09
-7.10846e-08
-5.19669e-09
-6.57425e-08
-5.34215e-09
-6.05009e-08
-5.24156e-09
-5.52808e-08
-5.22006e-09
-4.9277e-08
-6.00387e-09
-4.23923e-08
-6.88469e-09
-3.46372e-08
-7.75505e-09
-2.60402e-08
-8.597e-09
-1.67067e-08
-9.33352e-09
-6.91337e-09
-9.79333e-09
2.81268e-09
-9.72606e-09
1.16572e-08
-8.84453e-09
1.85688e-08
-6.91161e-09
2.24558e-08
-3.88697e-09
2.25705e-08
-1.14786e-10
1.89923e-08
3.57819e-09
1.31503e-08
5.84203e-09
7.35891e-09
5.79133e-09
3.24428e-09
4.11461e-09
1.04084e-09
2.20342e-09
1.81014e-10
8.59814e-10
-7.74663e-12
1.88747e-10
3.68769e-14
-7.7959e-12
3.36786e-14
-2.34073e-08
3.11623e-08
-4.63026e-08
3.04729e-08
-6.90159e-08
3.02831e-08
-9.16755e-08
3.02632e-08
-1.14178e-07
3.01036e-08
-1.36257e-07
2.9581e-08
-1.57559e-07
2.8575e-08
-1.7771e-07
2.70577e-08
-1.96365e-07
2.50706e-08
-2.13251e-07
2.27114e-08
-2.28182e-07
2.00964e-08
-2.41063e-07
1.73546e-08
-2.51871e-07
1.45804e-08
-2.60613e-07
1.18188e-08
-2.67284e-07
9.04566e-09
-2.71838e-07
6.20862e-09
-2.74162e-07
3.21155e-09
-2.74156e-07
6.94212e-11
-2.71764e-07
-3.14833e-09
-2.66895e-07
-6.5073e-09
-2.59557e-07
-9.85745e-09
-2.49845e-07
-1.3093e-08
-2.3801e-07
-1.59854e-08
-2.24444e-07
-1.8345e-08
-2.09677e-07
-1.99632e-08
-1.94368e-07
-2.0651e-08
-1.79078e-07
-2.05323e-08
-1.63547e-07
-2.07509e-08
-1.46181e-07
-2.33692e-08
-1.26674e-07
-2.63919e-08
-1.05072e-07
-2.93575e-08
-8.14804e-08
-3.21882e-08
-5.6214e-08
-3.45999e-08
-3.0003e-08
-3.60043e-08
-4.16666e-09
-3.55624e-08
1.93213e-08
-3.23325e-08
3.79566e-08
-2.55469e-08
4.91608e-08
-1.50912e-08
5.11482e-08
-2.10216e-09
4.40616e-08
1.06647e-08
3.11684e-08
1.87351e-08
1.78585e-08
1.91012e-08
8.10694e-09
1.38662e-08
2.7198e-09
7.59052e-09
5.31421e-10
3.04817e-09
7.70549e-12
7.12432e-10
7.80133e-12
-7.9152e-12
7.8311e-12
-3.97579e-08
7.09202e-08
-7.85219e-08
6.92369e-08
-1.16772e-07
6.85333e-08
-1.54698e-07
6.81894e-08
-1.9213e-07
6.75363e-08
-2.28659e-07
6.61096e-08
-2.6374e-07
6.36565e-08
-2.96799e-07
6.01168e-08
-3.27308e-07
5.5579e-08
-3.54844e-07
5.02481e-08
-3.7912e-07
4.43722e-08
-3.99988e-07
3.82224e-08
-4.17409e-07
3.20017e-08
-4.31398e-07
2.58078e-08
-4.41953e-07
1.96007e-08
-4.49018e-07
1.32743e-08
-4.52453e-07
6.64693e-09
-4.5213e-07
-2.54357e-10
-4.47978e-07
-7.29983e-09
-4.39899e-07
-1.45861e-08
-4.27942e-07
-2.1815e-08
-4.12284e-07
-2.87509e-08
-3.93326e-07
-3.49436e-08
-3.71649e-07
-4.00214e-08
-3.48003e-07
-4.36095e-08
-3.23277e-07
-4.53768e-08
-2.98261e-07
-4.5548e-08
-2.72708e-07
-4.63045e-08
-2.44631e-07
-5.14454e-08
-2.13707e-07
-5.73169e-08
-1.80047e-07
-6.3017e-08
-1.4382e-07
-6.8415e-08
-1.05463e-07
-7.29569e-08
-6.59514e-08
-7.55165e-08
-2.70148e-08
-7.44991e-08
8.75998e-09
-6.81073e-08
3.80455e-08
-5.48325e-08
5.72404e-08
-3.42861e-08
6.34761e-08
-8.33791e-09
5.62011e-08
1.79397e-08
3.95248e-08
3.54114e-08
2.14747e-08
3.71513e-08
8.3534e-09
2.69875e-08
1.53658e-09
1.44073e-08
-7.13831e-10
5.29855e-09
-7.13212e-10
7.11784e-10
-1.88904e-10
-5.32248e-10
-1.81076e-10
-5.62671e-08
1.27187e-07
-1.10843e-07
1.23812e-07
-1.64423e-07
1.22113e-07
-2.17181e-07
1.20947e-07
-2.68889e-07
1.19244e-07
-3.19034e-07
1.16255e-07
-3.66942e-07
1.11564e-07
-4.11899e-07
1.05073e-07
-4.53245e-07
9.69254e-08
-4.90455e-07
8.7457e-08
-5.23161e-07
7.70782e-08
-5.51174e-07
6.62356e-08
-5.74443e-07
5.52708e-08
-5.9299e-07
4.43545e-08
-6.0683e-07
3.34404e-08
-6.15926e-07
2.23702e-08
-6.20155e-07
1.08759e-08
-6.19404e-07
-1.00585e-09
-6.1361e-07
-1.30942e-08
-6.0271e-07
-2.54861e-08
-5.86824e-07
-3.77005e-08
-5.66219e-07
-4.93567e-08
-5.41406e-07
-5.97559e-08
-5.1308e-07
-6.8348e-08
-4.8205e-07
-7.46397e-08
-4.49234e-07
-7.8193e-08
-4.15572e-07
-7.92105e-08
-3.81188e-07
-8.06882e-08
-3.44008e-07
-8.86251e-08
-3.04032e-07
-9.7294e-08
-2.6145e-07
-1.05598e-07
-2.16418e-07
-1.13448e-07
-1.69314e-07
-1.20061e-07
-1.20999e-07
-1.23831e-07
-7.30301e-08
-1.22468e-07
-2.78308e-08
-1.13307e-07
1.12234e-08
-9.38867e-08
3.99707e-08
-6.30335e-08
5.41101e-08
-2.24773e-08
5.08932e-08
2.11565e-08
3.39032e-08
5.24014e-08
1.39251e-08
5.71294e-08
2.17985e-10
4.06945e-08
-5.30355e-09
1.99288e-08
-5.30205e-09
5.29702e-09
-3.04966e-09
-1.54064e-09
-8.60175e-10
-2.72175e-09
-1.04125e-09
-7.17485e-08
1.98936e-07
-1.41046e-07
1.9311e-07
-2.08652e-07
1.8972e-07
-2.74692e-07
1.86987e-07
-3.38904e-07
1.83457e-07
-4.00734e-07
1.78085e-07
-4.59458e-07
1.70289e-07
-5.14311e-07
1.59925e-07
-5.64581e-07
1.47196e-07
-6.09694e-07
1.3257e-07
-6.49244e-07
1.16628e-07
-6.83012e-07
1.00004e-07
-7.10936e-07
8.31951e-08
-7.33048e-07
6.64664e-08
-7.49394e-07
4.97868e-08
-7.59991e-07
3.2968e-08
-7.64792e-07
1.56767e-08
-7.63763e-07
-2.03535e-09
-7.56849e-07
-2.00075e-08
-7.44086e-07
-3.82487e-08
-7.25705e-07
-5.6082e-08
-7.02053e-07
-7.30083e-08
-6.73726e-07
-8.80833e-08
-6.41447e-07
-1.00626e-07
-6.05934e-07
-1.10153e-07
-5.67851e-07
-1.16276e-07
-5.28014e-07
-1.19048e-07
-4.87293e-07
-1.21409e-07
-4.44396e-07
-1.31522e-07
-4.00008e-07
-1.41682e-07
-3.54307e-07
-1.51299e-07
-3.0734e-07
-1.60416e-07
-2.59215e-07
-1.68186e-07
-2.1019e-07
-1.72856e-07
-1.60759e-07
-1.71899e-07
-1.11861e-07
-1.62206e-07
-6.53154e-08
-1.40432e-07
-2.44961e-08
-1.03853e-07
4.90408e-09
-5.18776e-08
1.51516e-08
1.09089e-08
5.74378e-09
6.18092e-08
-1.04405e-08
7.33137e-08
-1.99406e-08
5.01946e-08
-1.9938e-08
1.99261e-08
-1.44124e-08
-2.28583e-10
-7.59277e-09
-8.36031e-09
-2.20399e-09
-8.11056e-09
-3.24525e-09
-8.485e-08
2.83786e-07
-1.66657e-07
2.74917e-07
-2.45927e-07
2.68991e-07
-3.22781e-07
2.6384e-07
-3.96944e-07
2.57621e-07
-4.67864e-07
2.49005e-07
-5.34824e-07
2.3725e-07
-5.97069e-07
2.2217e-07
-6.53891e-07
2.04019e-07
-7.0471e-07
1.8339e-07
-7.4911e-07
1.61028e-07
-7.86862e-07
1.37757e-07
-8.17907e-07
1.1424e-07
-8.42298e-07
9.08576e-08
-8.60128e-07
6.76168e-08
-8.71482e-07
4.43216e-08
-8.76392e-07
2.0587e-08
-8.74919e-07
-3.50809e-09
-8.67059e-07
-2.78676e-08
-8.52948e-07
-5.23601e-08
-8.32921e-07
-7.61086e-08
-8.07405e-07
-9.85242e-08
-7.77071e-07
-1.18418e-07
-7.42676e-07
-1.35021e-07
-7.04836e-07
-1.47993e-07
-6.63803e-07
-1.57308e-07
-6.19519e-07
-1.63333e-07
-5.72763e-07
-1.68166e-07
-5.2678e-07
-1.77505e-07
-4.82099e-07
-1.86363e-07
-4.38614e-07
-1.94784e-07
-3.96305e-07
-2.02724e-07
-3.55068e-07
-2.09423e-07
-3.14464e-07
-2.1346e-07
-2.73556e-07
-2.12808e-07
-2.30968e-07
-2.04793e-07
-1.85407e-07
-1.85993e-07
-1.36876e-07
-1.52383e-07
-8.9213e-08
-9.95412e-08
-5.52414e-08
-2.30627e-08
-4.57801e-08
5.23477e-08
-5.02167e-08
7.77503e-08
-5.02129e-08
5.01907e-08
-4.07063e-08
1.04195e-08
-2.69941e-08
-1.39408e-08
-1.38692e-08
-2.14853e-08
-4.11539e-09
-1.78644e-08
-7.36064e-09
-9.52435e-08
3.7903e-07
-1.86894e-07
3.66568e-07
-2.75249e-07
3.57347e-07
-3.60404e-07
3.48996e-07
-4.42074e-07
3.39291e-07
-5.1971e-07
3.2664e-07
-5.92614e-07
3.10154e-07
-6.60047e-07
2.89604e-07
-7.21318e-07
2.65289e-07
-7.75849e-07
2.37921e-07
-8.23228e-07
2.08407e-07
-8.63235e-07
1.77764e-07
-8.9583e-07
1.46835e-07
-9.21099e-07
1.16127e-07
-9.39181e-07
8.56995e-08
-9.50209e-07
5.53491e-08
-9.54242e-07
2.46199e-08
-9.51373e-07
-6.37603e-09
-9.41695e-07
-3.75457e-08
-9.25347e-07
-6.87084e-08
-9.02673e-07
-9.87825e-08
-8.74087e-07
-1.2711e-07
-8.40251e-07
-1.52254e-07
-8.01915e-07
-1.73357e-07
-7.59667e-07
-1.90242e-07
-7.13641e-07
-2.03334e-07
-6.63432e-07
-2.13541e-07
-6.09927e-07
-2.2167e-07
-5.60264e-07
-2.27168e-07
-5.13897e-07
-2.3273e-07
-4.70334e-07
-2.38348e-07
-4.29335e-07
-2.43723e-07
-3.905e-07
-2.48258e-07
-3.52992e-07
-2.50969e-07
-3.15508e-07
-2.50291e-07
-2.76551e-07
-2.43751e-07
-2.34901e-07
-2.27643e-07
-1.90003e-07
-1.97282e-07
-1.41817e-07
-1.47727e-07
-9.69217e-08
-6.79583e-08
-7.77851e-08
3.32111e-08
-7.77807e-08
7.77458e-08
-7.33354e-08
4.57454e-08
-5.71436e-08
-5.77233e-09
-3.71594e-08
-3.3925e-08
-1.91049e-08
-3.95399e-08
-5.79231e-09
-3.1177e-08
-1.3153e-08
-1.03425e-07
4.82455e-07
-2.02643e-07
4.65786e-07
-2.97967e-07
4.52672e-07
-3.89404e-07
4.40432e-07
-4.76639e-07
4.26527e-07
-5.59122e-07
4.09124e-07
-6.3617e-07
3.87202e-07
-7.07056e-07
3.60491e-07
-7.71099e-07
3.29332e-07
-8.2773e-07
2.94553e-07
-8.76546e-07
2.57223e-07
-9.17341e-07
2.1856e-07
-9.50096e-07
1.79591e-07
-9.74926e-07
1.40957e-07
-9.92001e-07
1.02774e-07
-1.00147e-06
6.48208e-08
-1.00339e-06
2.65399e-08
-9.97857e-07
-1.19109e-08
-9.85016e-07
-5.03868e-08
-9.64954e-07
-8.87706e-08
-9.3796e-07
-1.25776e-07
-9.04356e-07
-1.60715e-07
-8.64733e-07
-1.91877e-07
-8.19813e-07
-2.18276e-07
-7.70277e-07
-2.39778e-07
-7.16653e-07
-2.56959e-07
-6.59439e-07
-2.70755e-07
-6.00085e-07
-2.81024e-07
-5.42004e-07
-2.85249e-07
-4.85262e-07
-2.89473e-07
-4.2962e-07
-2.93989e-07
-3.74987e-07
-2.98356e-07
-3.21376e-07
-3.01869e-07
-2.68923e-07
-3.03422e-07
-2.18023e-07
-3.01191e-07
-1.69524e-07
-2.9225e-07
-1.24839e-07
-2.72328e-07
-8.60443e-08
-2.36077e-07
-5.6006e-08
-1.77765e-07
-3.3259e-08
-9.07053e-08
-3.32545e-08
3.32064e-08
-5.23819e-08
9.68731e-08
-6.18341e-08
5.51975e-08
-5.24178e-08
-1.51886e-08
-3.5421e-08
-5.09219e-08
-1.87395e-08
-5.62213e-08
-5.84319e-09
-4.40734e-08
-1.89961e-08
-1.09733e-07
5.92188e-07
-2.14763e-07
5.70816e-07
-3.1536e-07
5.5327e-07
-4.11455e-07
5.36528e-07
-5.02695e-07
5.17767e-07
-5.88516e-07
4.94946e-07
-6.68238e-07
4.66925e-07
-7.41142e-07
4.33395e-07
-8.06556e-07
3.94746e-07
-8.63923e-07
3.5192e-07
-9.12846e-07
3.06146e-07
-9.5313e-07
2.58844e-07
-9.84769e-07
2.11229e-07
-1.00789e-06
1.64077e-07
-1.02268e-06
1.17562e-07
-1.02929e-06
7.14337e-08
-1.02776e-06
2.50115e-08
-1.0182e-06
-2.1475e-08
-1.00075e-06
-6.78318e-08
-9.75462e-07
-1.1406e-07
-9.4258e-07
-1.58658e-07
-9.02335e-07
-2.0096e-07
-8.55275e-07
-2.38937e-07
-8.02147e-07
-2.71404e-07
-7.4379e-07
-2.98135e-07
-6.81173e-07
-3.19576e-07
-6.15483e-07
-3.36445e-07
-5.47829e-07
-3.48678e-07
-4.77568e-07
-3.55511e-07
-4.05765e-07
-3.61276e-07
-3.33095e-07
-3.66659e-07
-2.60369e-07
-3.71081e-07
-1.88811e-07
-3.73428e-07
-1.20188e-07
-3.72045e-07
-5.6834e-08
-3.64544e-07
-1.50141e-09
-3.47583e-07
4.29761e-08
-3.16806e-07
7.41885e-08
-2.67289e-07
9.06426e-08
-1.94219e-07
9.06476e-08
-9.07104e-08
6.79103e-08
5.59436e-08
2.30245e-08
1.41759e-07
-1.0937e-08
8.91589e-08
-2.11752e-08
-4.95037e-09
-1.79506e-08
-5.41466e-08
-1.06698e-08
-6.35022e-08
-3.57953e-09
-5.11636e-08
-2.25757e-08
-1.14349e-07
7.06538e-07
-2.23646e-07
6.80114e-07
-3.28026e-07
6.5765e-07
-4.27361e-07
6.35863e-07
-5.21246e-07
6.11652e-07
-6.0909e-07
5.8279e-07
-6.90199e-07
5.48034e-07
-7.63852e-07
5.07048e-07
-8.29377e-07
4.60271e-07
-8.86221e-07
4.08764e-07
-9.3399e-07
3.53916e-07
-9.72491e-07
2.97345e-07
-1.00172e-06
2.40455e-07
-1.0218e-06
1.84156e-07
-1.03292e-06
1.28682e-07
-1.03524e-06
7.37561e-08
-1.02877e-06
1.8547e-08
-1.01364e-06
-3.66094e-08
-9.89997e-07
-9.14739e-08
-9.57847e-07
-1.4621e-07
-9.1744e-07
-1.99065e-07
-8.68932e-07
-2.49468e-07
-8.12862e-07
-2.95006e-07
-7.50034e-07
-3.34233e-07
-6.81421e-07
-3.66747e-07
-6.08232e-07
-3.92766e-07
-5.31774e-07
-4.12902e-07
-4.52749e-07
-4.27703e-07
-3.70717e-07
-4.37543e-07
-2.86882e-07
-4.45111e-07
-2.02764e-07
-4.50777e-07
-1.20194e-07
-4.53652e-07
-4.14637e-08
-4.52158e-07
3.06521e-08
-4.44161e-07
9.30544e-08
-4.26947e-07
1.42674e-07
-3.97203e-07
1.76925e-07
-3.51056e-07
1.94142e-07
-2.84507e-07
1.94147e-07
-1.94224e-07
1.77703e-07
-7.42664e-08
1.47675e-07
8.59716e-08
9.94996e-08
1.89934e-07
5.18467e-08
1.36812e-07
2.24565e-08
2.44398e-08
8.32561e-09
-4.00158e-08
2.09642e-09
-5.7273e-08
1.13241e-10
-4.91805e-08
-2.24624e-08
-1.17449e-07
8.23987e-07
-2.2957e-07
7.92235e-07
-3.36374e-07
7.64454e-07
-4.37657e-07
7.37146e-07
-5.32947e-07
7.06942e-07
-6.21606e-07
6.71449e-07
-7.02909e-07
6.29338e-07
-7.76117e-07
5.80256e-07
-8.40545e-07
5.247e-07
-8.95635e-07
4.63854e-07
-9.40982e-07
3.99263e-07
-9.76384e-07
3.32747e-07
-1.00182e-06
2.65893e-07
-1.01741e-06
1.99748e-07
-1.02335e-06
1.34618e-07
-1.0198e-06
7.02027e-08
-1.00675e-06
5.49693e-09
-9.8435e-07
-5.90056e-08
-9.52817e-07
-1.23006e-07
-9.12148e-07
-1.86879e-07
-8.62669e-07
-2.48544e-07
-8.04498e-07
-3.07639e-07
-7.38228e-07
-3.61275e-07
-6.64766e-07
-4.07695e-07
-5.85243e-07
-4.4627e-07
-5.01095e-07
-4.76913e-07
-4.13846e-07
-5.00152e-07
-3.24409e-07
-5.1714e-07
-2.33221e-07
-5.2873e-07
-1.41888e-07
-5.36444e-07
-5.25681e-08
-5.40097e-07
3.21934e-08
-5.38413e-07
1.09503e-07
-5.29468e-07
1.76227e-07
-5.10885e-07
2.29256e-07
-4.79976e-07
2.65917e-07
-4.33863e-07
2.84418e-07
-3.69557e-07
2.84422e-07
-2.84511e-07
2.67214e-07
-1.77016e-07
2.36012e-07
-4.3064e-08
1.97227e-07
1.24756e-07
1.5234e-07
2.34822e-07
1.0382e-07
1.85331e-07
6.3011e-08
6.52486e-08
3.42727e-08
-1.12775e-08
1.50849e-08
-3.80852e-08
3.88529e-09
-3.79808e-08
-1.85772e-08
-1.19128e-07
9.43115e-07
-2.32713e-07
9.05821e-07
-3.40658e-07
8.72399e-07
-4.42661e-07
8.3915e-07
-5.3817e-07
8.0245e-07
-6.26476e-07
7.59756e-07
-7.06806e-07
7.09667e-07
-7.78381e-07
6.51831e-07
-8.40491e-07
5.86811e-07
-8.92554e-07
5.15918e-07
-9.34143e-07
4.40852e-07
-9.6503e-07
3.63635e-07
-9.85175e-07
2.86039e-07
-9.94681e-07
2.09254e-07
-9.93745e-07
1.33682e-07
-9.82563e-07
5.90204e-08
-9.61125e-07
-1.5941e-08
-9.29669e-07
-9.04612e-08
-8.88532e-07
-1.64142e-07
-8.37787e-07
-2.37624e-07
-7.77975e-07
-3.08356e-07
-7.09238e-07
-3.76377e-07
-6.3232e-07
-4.38193e-07
-5.48282e-07
-4.91733e-07
-4.58434e-07
-5.36118e-07
-3.64512e-07
-5.70835e-07
-2.68442e-07
-5.96221e-07
-1.71626e-07
-6.13957e-07
-7.52996e-08
-6.25056e-07
1.84454e-08
-6.30189e-07
1.06999e-07
-6.2865e-07
1.87445e-07
-6.18859e-07
2.56714e-07
-5.98737e-07
3.11789e-07
-5.6596e-07
3.50012e-07
-5.18199e-07
3.69459e-07
-4.53311e-07
3.69463e-07
-3.69561e-07
3.50971e-07
-2.66019e-07
3.1673e-07
-1.42775e-07
2.72262e-07
1.4038e-09
2.27588e-07
1.69431e-07
1.85949e-07
2.76461e-07
1.40398e-07
2.30882e-07
9.38633e-08
1.11783e-07
5.48185e-08
2.77673e-08
2.55402e-08
-8.80703e-09
6.90979e-09
-1.93504e-08
-1.16674e-08
-1.19428e-07
1.06254e-06
-2.33163e-07
1.01956e-06
-3.40991e-07
9.80227e-07
-4.42503e-07
9.40662e-07
-5.3704e-07
8.96988e-07
-6.23808e-07
8.46524e-07
-7.0196e-07
7.8782e-07
-7.70663e-07
7.20534e-07
-8.2916e-07
6.45308e-07
-8.7683e-07
5.63587e-07
-9.13203e-07
4.77226e-07
-9.38016e-07
3.88448e-07
-9.51198e-07
2.99221e-07
-9.5284e-07
2.10895e-07
-9.43172e-07
1.24014e-07
-9.22456e-07
3.83048e-08
-8.90722e-07
-4.7675e-08
-8.48384e-07
-1.328e-07
-7.96035e-07
-2.1649e-07
-7.33896e-07
-2.99763e-07
-6.62976e-07
-3.79275e-07
-5.83512e-07
-4.5584e-07
-4.96552e-07
-5.25153e-07
-4.03311e-07
-5.84974e-07
-3.05195e-07
-6.34233e-07
-2.04191e-07
-6.71839e-07
-1.02711e-07
-6.977e-07
-2.62045e-09
-7.14048e-07
9.41729e-08
-7.21849e-07
1.85165e-07
-7.21182e-07
2.67493e-07
-7.10978e-07
3.38162e-07
-6.89528e-07
3.94274e-07
-6.54848e-07
4.33264e-07
-6.0495e-07
4.5321e-07
-5.38145e-07
4.53213e-07
-4.53314e-07
4.33773e-07
-3.50121e-07
3.97121e-07
-2.29367e-07
3.47509e-07
-9.31638e-08
2.92186e-07
5.67271e-08
2.43697e-07
2.1792e-07
2.0475e-07
3.15408e-07
1.62172e-07
2.73459e-07
1.13284e-07
1.60672e-07
6.80934e-08
7.29575e-08
3.23259e-08
2.69604e-08
8.84273e-09
4.13276e-09
-2.82464e-09
-1.18358e-07
1.1809e-06
-2.30928e-07
1.13213e-06
-3.37368e-07
1.08667e-06
-4.37143e-07
1.04044e-06
-5.29472e-07
9.89317e-07
-6.13449e-07
9.30502e-07
-6.88137e-07
8.62509e-07
-7.52626e-07
7.85023e-07
-8.06094e-07
6.98777e-07
-8.47862e-07
6.05355e-07
-8.77402e-07
5.06766e-07
-8.94403e-07
4.05449e-07
-8.98765e-07
3.03583e-07
-8.90583e-07
2.02713e-07
-8.70162e-07
1.03594e-07
-8.37901e-07
6.04371e-09
-7.93935e-07
-9.16399e-08
-7.38951e-07
-1.87784e-07
-6.74008e-07
-2.81433e-07
-5.99463e-07
-3.74308e-07
-5.1713e-07
-4.61608e-07
-4.27676e-07
-5.45295e-07
-3.32586e-07
-6.20243e-07
-2.33076e-07
-6.84485e-07
-1.30369e-07
-7.3694e-07
-2.63535e-08
-7.75855e-07
7.61846e-08
-8.00238e-07
1.74907e-07
-8.1277e-07
2.67355e-07
-8.14297e-07
3.50722e-07
-8.04549e-07
4.22088e-07
-7.82344e-07
4.78639e-07
-7.46079e-07
5.17914e-07
-6.94123e-07
5.38045e-07
-6.25082e-07
5.38048e-07
-5.38148e-07
5.18109e-07
-4.33375e-07
4.79893e-07
-3.11905e-07
4.26871e-07
-1.76344e-07
3.64476e-07
-3.07696e-08
3.01132e-07
1.20072e-07
2.50242e-07
2.6881e-07
2.12768e-07
3.52881e-07
1.71868e-07
3.14359e-07
1.22446e-07
2.10094e-07
7.44858e-08
1.20918e-07
3.55561e-08
6.58901e-08
9.72431e-09
2.99645e-08
6.89968e-09
-1.15893e-07
1.29679e-06
-2.25949e-07
1.24218e-06
-3.29677e-07
1.19039e-06
-4.26404e-07
1.13716e-06
-5.15199e-07
1.07811e-06
-5.95028e-07
1.01033e-06
-6.64843e-07
9.32323e-07
-7.23634e-07
8.43814e-07
-7.70497e-07
7.4564e-07
-8.04677e-07
6.39535e-07
-8.25573e-07
5.27662e-07
-8.32824e-07
4.127e-07
-8.26316e-07
2.97075e-07
-8.06181e-07
1.82578e-07
-7.72862e-07
7.02757e-08
-7.27004e-07
-3.98146e-08
-6.68931e-07
-1.49713e-07
-5.99659e-07
-2.57055e-07
-5.20927e-07
-3.60165e-07
-4.33471e-07
-4.61763e-07
-3.39384e-07
-5.55695e-07
-2.41756e-07
-6.42923e-07
-1.42082e-07
-7.19917e-07
-4.11113e-08
-7.85455e-07
6.04479e-08
-8.38499e-07
1.61794e-07
-8.77201e-07
2.60988e-07
-8.99433e-07
3.53836e-07
-9.05618e-07
4.37471e-07
-8.97932e-07
5.08968e-07
-8.76046e-07
5.65561e-07
-8.38937e-07
6.04844e-07
-7.85362e-07
6.2499e-07
-7.14269e-07
6.24992e-07
-6.25084e-07
6.04865e-07
-5.18022e-07
5.65881e-07
-3.9439e-07
5.10812e-07
-2.56836e-07
4.44095e-07
-1.09627e-07
3.71986e-07
4.13387e-08
3.03371e-07
1.88687e-07
2.50926e-07
3.21255e-07
2.13425e-07
3.90382e-07
1.72829e-07
3.54955e-07
1.23812e-07
2.59111e-07
7.55048e-08
1.69225e-07
3.59988e-08
1.05396e-07
9.79177e-09
5.61715e-08
1.66915e-08
-1.11975e-07
1.40877e-06
-2.18101e-07
1.34831e-06
-3.17714e-07
1.29001e-06
-4.0998e-07
1.22943e-06
-4.93799e-07
1.16193e-06
-5.67986e-07
1.08452e-06
-6.31361e-07
9.95698e-07
-6.82797e-07
8.95251e-07
-7.21286e-07
7.84129e-07
-7.45984e-07
6.64233e-07
-7.56208e-07
5.37887e-07
-7.51561e-07
4.08054e-07
-7.3195e-07
2.77464e-07
-6.97608e-07
1.48236e-07
-6.49175e-07
2.18428e-08
-5.87686e-07
-1.01303e-07
-5.13679e-07
-2.2372e-07
-4.28799e-07
-3.41936e-07
-3.34798e-07
-4.54166e-07
-2.35879e-07
-5.60682e-07
-1.34196e-07
-6.5738e-07
-3.41788e-08
-7.42939e-07
6.4365e-08
-8.18461e-07
1.61891e-07
-8.82982e-07
2.58274e-07
-9.34881e-07
3.52927e-07
-9.71854e-07
4.44302e-07
-9.90808e-07
5.2761e-07
-9.88926e-07
5.98785e-07
-9.69107e-07
6.55077e-07
-9.32337e-07
6.9414e-07
-8.78001e-07
7.14193e-07
-8.05414e-07
7.14194e-07
-7.1427e-07
6.9405e-07
-6.04941e-07
6.5478e-07
-4.78751e-07
5.98673e-07
-3.38284e-07
5.29409e-07
-1.87572e-07
4.52106e-07
-3.23239e-08
3.73382e-07
1.20062e-07
3.0183e-07
2.60239e-07
2.48225e-07
3.74859e-07
2.09397e-07
4.2921e-07
1.68166e-07
3.96186e-07
1.20046e-07
3.0723e-07
7.29479e-08
2.16324e-07
3.45956e-08
1.43748e-07
9.33235e-09
8.14347e-08
2.60238e-08
-1.06518e-07
1.51529e-06
-2.07201e-07
1.44899e-06
-3.01184e-07
1.38399e-06
-3.8745e-07
1.3157e-06
-4.64704e-07
1.23918e-06
-5.31589e-07
1.1514e-06
-5.86774e-07
1.05088e-06
-6.28993e-07
9.3747e-07
-6.57119e-07
8.12254e-07
-6.70209e-07
6.77322e-07
-6.67503e-07
5.35182e-07
-6.486e-07
3.89151e-07
-6.13507e-07
2.42371e-07
-5.62648e-07
9.7377e-08
-4.96859e-07
-4.39461e-08
-4.17679e-07
-1.80483e-07
-3.25795e-07
-3.15604e-07
-2.25694e-07
-4.42037e-07
-1.2087e-07
-5.58991e-07
-1.80616e-08
-6.6349e-07
8.19505e-08
-7.57392e-07
1.7836e-07
-8.39349e-07
2.72229e-07
-9.12331e-07
3.6421e-07
-9.74962e-07
4.54007e-07
-1.02468e-06
5.40237e-07
-1.05808e-06
6.20245e-07
-1.07081e-06
6.90727e-07
-1.05941e-06
7.4672e-07
-1.0251e-06
7.85489e-07
-9.71106e-07
8.05365e-07
-8.97877e-07
8.05364e-07
-8.05413e-07
7.85311e-07
-6.94217e-07
7.4603e-07
-5.6566e-07
6.89482e-07
-4.22203e-07
6.18816e-07
-2.67618e-07
5.38375e-07
-1.07131e-07
4.53618e-07
5.24332e-08
3.71052e-07
2.02628e-07
2.98331e-07
3.3296e-07
2.43703e-07
4.29487e-07
2.02708e-07
4.70205e-07
1.60403e-07
4.38491e-07
1.13439e-07
3.54195e-07
6.84094e-08
2.61353e-07
3.21856e-08
1.79972e-07
8.59627e-09
1.05024e-07
3.46201e-08
-9.93999e-08
1.61469e-06
-1.93002e-07
1.54259e-06
-2.79703e-07
1.47069e-06
-3.58275e-07
1.39427e-06
-4.27205e-07
1.30811e-06
-4.84937e-07
1.20914e-06
-5.2997e-07
1.09592e-06
-5.60882e-07
9.68383e-07
-5.76411e-07
8.27783e-07
-5.75518e-07
6.76429e-07
-5.57387e-07
5.17051e-07
-5.21681e-07
3.53445e-07
-4.68606e-07
1.89297e-07
-3.98873e-07
2.76443e-08
-3.13722e-07
-1.29098e-07
-2.14778e-07
-2.79427e-07
-1.08308e-07
-4.22073e-07
-9.07931e-10
-5.49438e-07
1.02954e-07
-6.62853e-07
2.01375e-07
-7.61911e-07
2.95193e-07
-8.5121e-07
3.86327e-07
-9.30484e-07
4.75177e-07
-1.00118e-06
5.61343e-07
-1.06113e-06
6.43427e-07
-1.10676e-06
7.19019e-07
-1.13368e-06
7.85248e-07
-1.13704e-06
8.39528e-07
-1.11369e-06
8.78098e-07
-1.06367e-06
8.9787e-07
-9.90878e-07
8.97865e-07
-8.97871e-07
8.77982e-07
-7.8553e-07
8.38916e-07
-6.55151e-07
7.82324e-07
-5.09068e-07
7.1096e-07
-3.50839e-07
6.28635e-07
-1.85294e-07
5.40085e-07
-1.858e-08
4.50768e-07
1.4175e-07
3.66652e-07
2.86744e-07
2.93984e-07
4.05628e-07
2.38344e-07
4.85127e-07
1.94781e-07
5.13767e-07
1.51297e-07
4.81976e-07
1.05596e-07
3.99895e-07
6.30155e-08
3.03934e-07
2.93568e-08
2.13631e-07
7.75483e-09
1.26626e-07
4.23749e-08
-9.04695e-08
1.70516e-06
-1.75195e-07
1.62732e-06
-2.52795e-07
1.54829e-06
-3.21801e-07
1.46327e-06
-3.80446e-07
1.36676e-06
-4.26957e-07
1.25565e-06
-4.59641e-07
1.1286e-06
-4.76903e-07
9.85645e-07
-4.7734e-07
8.2822e-07
-4.59835e-07
6.58924e-07
-4.23561e-07
4.80777e-07
-3.68325e-07
2.98209e-07
-2.94597e-07
1.15569e-07
-2.03493e-07
-6.346e-08
-9.87551e-08
-2.33835e-07
1.37554e-08
-3.91938e-07
1.22605e-07
-5.30923e-07
2.2559e-07
-6.52423e-07
3.21732e-07
-7.58995e-07
4.13225e-07
-8.53405e-07
5.01184e-07
-9.39169e-07
5.86774e-07
-1.01607e-06
6.69674e-07
-1.08408e-06
7.48576e-07
-1.14003e-06
8.2118e-07
-1.17937e-06
8.84485e-07
-1.19698e-06
9.3552e-07
-1.18808e-06
9.71688e-07
-1.14986e-06
9.90934e-07
-1.08292e-06
9.90924e-07
-9.90868e-07
9.71136e-07
-8.78084e-07
9.32357e-07
-7.46751e-07
8.76061e-07
-5.98855e-07
8.04564e-07
-4.3757e-07
7.21198e-07
-2.67474e-07
6.30208e-07
-9.43034e-08
5.36465e-07
7.51633e-08
4.45132e-07
2.33083e-07
3.61297e-07
3.70579e-07
2.89492e-07
4.77433e-07
2.32747e-07
5.41872e-07
1.86376e-07
5.60138e-07
1.41691e-07
5.26661e-07
9.72995e-08
4.44286e-07
5.732e-08
3.43913e-07
2.63933e-08
2.44558e-07
6.88501e-09
1.46134e-07
4.92599e-08
-7.95361e-08
1.78469e-06
-1.53401e-07
1.70118e-06
-2.19881e-07
1.61477e-06
-2.77238e-07
1.52063e-06
-3.23414e-07
1.41294e-06
-3.56389e-07
1.28862e-06
-3.74267e-07
1.14648e-06
-3.75266e-07
9.86644e-07
-3.5785e-07
8.10805e-07
-3.20864e-07
6.21938e-07
-2.63532e-07
4.23446e-07
-1.85872e-07
2.20549e-07
-8.87415e-08
1.84384e-08
2.18885e-08
-1.7409e-07
1.3712e-07
-3.49067e-07
2.47406e-07
-5.02223e-07
3.48484e-07
-6.32002e-07
4.42018e-07
-7.45957e-07
5.29898e-07
-8.46875e-07
6.14039e-07
-9.37547e-07
6.95437e-07
-1.02057e-06
7.74531e-07
-1.09517e-06
8.50098e-07
-1.15965e-06
9.19915e-07
-1.20985e-06
9.81045e-07
-1.2405e-06
1.03032e-06
-1.24625e-06
1.06498e-06
-1.22275e-06
1.08304e-06
-1.16791e-06
1.08303e-06
-1.08291e-06
1.06377e-06
-9.71604e-07
1.02518e-06
-8.39494e-07
9.69173e-07
-6.90744e-07
8.97991e-07
-5.27673e-07
8.14355e-07
-3.53935e-07
7.21909e-07
-1.75027e-07
6.25116e-07
2.48905e-09
5.2879e-07
1.71489e-07
4.37601e-07
3.24272e-07
3.55565e-07
4.52615e-07
2.85298e-07
5.47699e-07
2.27209e-07
5.99961e-07
1.77537e-07
6.0981e-07
1.31544e-07
5.72654e-07
8.864e-08
4.87191e-07
5.14541e-08
3.81099e-07
2.33731e-08
2.72638e-07
6.00492e-09
1.63502e-07
5.52648e-08
-6.63676e-08
1.85106e-06
-1.27156e-07
1.76197e-06
-1.80263e-07
1.66788e-06
-2.23645e-07
1.56401e-06
-2.5491e-07
1.4442e-06
-2.71762e-07
1.30547e-06
-2.72094e-07
1.14681e-06
-2.53945e-07
9.68495e-07
-2.15663e-07
7.72523e-07
-1.56121e-07
5.62397e-07
-7.46671e-08
3.41992e-07
2.82806e-08
1.17601e-07
1.44676e-07
-9.79572e-08
2.62055e-07
-2.9147e-07
3.71805e-07
-4.58818e-07
4.70405e-07
-6.00824e-07
5.60427e-07
-7.22024e-07
6.43725e-07
-8.29255e-07
7.22549e-07
-9.257e-07
7.98772e-07
-1.01377e-06
8.72818e-07
-1.09461e-06
9.4411e-07
-1.16646e-06
1.01055e-06
-1.22609e-06
1.06922e-06
-1.26852e-06
1.11689e-06
-1.28817e-06
1.15059e-06
-1.27995e-06
1.16808e-06
-1.24024e-06
1.16808e-06
-1.16791e-06
1.15001e-06
-1.06485e-06
1.11384e-06
-9.35427e-07
1.05954e-06
-7.852e-07
9.89044e-07
-6.20247e-07
9.05729e-07
-4.44358e-07
8.1288e-07
-2.61086e-07
7.14158e-07
-7.6305e-08
6.14066e-07
1.02582e-07
5.17246e-07
2.6831e-07
4.27803e-07
4.13715e-07
3.4877e-07
5.31648e-07
2.81106e-07
6.15363e-07
2.21739e-07
6.59328e-07
1.68219e-07
6.63331e-07
1.21448e-07
6.19424e-07
8.07144e-08
5.27924e-07
4.63202e-08
4.15493e-07
2.07582e-08
2.982e-07
5.22195e-09
1.79039e-07
6.04868e-08
-5.06816e-08
1.90174e-06
-9.58981e-08
1.80719e-06
-1.33099e-07
1.70508e-06
-1.59893e-07
1.59081e-06
-1.73507e-07
1.45782e-06
-1.71348e-07
1.30331e-06
-1.5111e-07
1.12657e-06
-1.10675e-07
9.28061e-07
-4.82993e-08
7.10147e-07
3.69856e-08
4.77112e-07
1.45527e-07
2.33451e-07
2.6751e-07
-4.38203e-09
3.86876e-07
-2.17324e-07
4.95263e-07
-3.99858e-07
5.90864e-07
-5.54419e-07
6.75889e-07
-6.8585e-07
7.53257e-07
-7.99392e-07
8.25511e-07
-9.01509e-07
8.94884e-07
-9.95073e-07
9.6259e-07
-1.08148e-06
1.0282e-06
-1.16022e-06
1.09008e-06
-1.22833e-06
1.1454e-06
-1.28141e-06
1.19089e-06
-1.31401e-06
1.2234e-06
-1.32068e-06
1.24042e-06
-1.29697e-06
1.24042e-06
-1.24024e-06
1.22293e-06
-1.15042e-06
1.18826e-06
-1.03018e-06
1.13722e-06
-8.84388e-07
1.07099e-06
-7.18969e-07
9.9098e-07
-5.40233e-07
8.99601e-07
-3.52979e-07
8.00407e-07
-1.61892e-07
6.97868e-07
2.62342e-08
5.96383e-07
2.04066e-07
5.00304e-07
3.64388e-07
4.13043e-07
5.00976e-07
3.36572e-07
6.08119e-07
2.70866e-07
6.81068e-07
2.13636e-07
7.16558e-07
1.63412e-07
7.13555e-07
1.19111e-07
6.63725e-07
7.92544e-08
5.6778e-07
4.55748e-08
4.49173e-07
2.05452e-08
3.2323e-07
5.24514e-09
1.94339e-07
6.57319e-08
-3.21317e-08
1.93387e-06
-5.89401e-08
1.834e-06
-7.7361e-08
1.7235e-06
-8.46203e-08
1.59807e-06
-7.75077e-08
1.4507e-06
-5.31314e-08
1.27894e-06
-9.01333e-09
1.08246e-06
5.7072e-08
8.61975e-07
1.46786e-07
6.20433e-07
2.60768e-07
3.6313e-07
3.88251e-07
1.05967e-07
5.09679e-07
-1.25811e-07
6.16477e-07
-3.24121e-07
7.0834e-07
-4.91722e-07
7.87623e-07
-6.33702e-07
8.57515e-07
-7.55742e-07
9.21732e-07
-8.6361e-07
9.82847e-07
-9.62624e-07
1.04254e-06
-1.05476e-06
1.10103e-06
-1.13997e-06
1.15692e-06
-1.21612e-06
1.2077e-06
-1.27911e-06
1.25011e-06
-1.32382e-06
1.28085e-06
-1.34475e-06
1.29714e-06
-1.33698e-06
1.29714e-06
-1.29697e-06
1.28013e-06
-1.22323e-06
1.24644e-06
-1.11673e-06
1.19717e-06
-9.8091e-07
1.13387e-06
-8.21086e-07
1.05828e-06
-6.4338e-07
9.72053e-07
-4.54008e-07
8.77416e-07
-2.58341e-07
7.76081e-07
-6.05573e-08
6.7206e-07
1.30256e-07
5.71044e-07
3.05082e-07
4.77107e-07
4.58325e-07
3.92943e-07
5.85141e-07
3.19734e-07
6.81328e-07
2.57097e-07
7.43706e-07
2.03452e-07
7.70203e-07
1.57406e-07
7.59601e-07
1.16352e-07
7.04779e-07
7.82472e-08
6.05885e-07
4.541e-08
4.8201e-07
2.06669e-08
3.47973e-07
5.34649e-09
2.09659e-07
7.10784e-08
-1.02856e-08
1.94416e-06
-1.54305e-08
1.83914e-06
-1.17905e-08
1.71986e-06
3.82698e-09
1.58245e-06
3.51049e-08
1.41943e-06
8.52318e-08
1.22881e-06
1.5682e-07
1.01087e-06
2.52021e-07
7.66774e-07
3.71384e-07
5.0107e-07
5.0431e-07
2.30202e-07
6.28142e-07
-1.78652e-08
7.33555e-07
-2.31224e-07
8.21368e-07
-4.11935e-07
8.94222e-07
-5.64576e-07
9.55846e-07
-6.95326e-07
1.01046e-06
-8.10359e-07
1.06182e-06
-9.14964e-07
1.11203e-06
-1.01284e-06
1.16184e-06
-1.10457e-06
1.21038e-06
-1.1885e-06
1.25535e-06
-1.26109e-06
1.29364e-06
-1.31741e-06
1.3219e-06
-1.35207e-06
1.33712e-06
-1.35996e-06
1.33712e-06
-1.33698e-06
1.32084e-06
-1.28068e-06
1.28833e-06
-1.19073e-06
1.24067e-06
-1.06906e-06
1.17955e-06
-9.19789e-07
1.10695e-06
-7.48491e-07
1.02488e-06
-5.61308e-07
9.35099e-07
-3.64228e-07
8.38733e-07
-1.61976e-07
7.37185e-07
4.09911e-08
6.34477e-07
2.32964e-07
5.36351e-07
4.03208e-07
4.46488e-07
5.48189e-07
3.66945e-07
6.64683e-07
2.98312e-07
7.49962e-07
2.39932e-07
8.02085e-07
1.90373e-07
8.19762e-07
1.48101e-07
8.01873e-07
1.10237e-07
7.42642e-07
7.46992e-08
6.41423e-07
4.36459e-08
5.13063e-07
1.99805e-08
3.71638e-07
5.20145e-09
2.24438e-07
7.62798e-08
1.54e-08
1.92876e-06
3.56856e-08
1.81886e-06
6.51471e-08
1.6904e-06
1.07424e-07
1.54017e-06
1.66694e-07
1.36016e-06
2.46435e-07
1.14907e-06
3.49139e-07
9.08164e-07
4.7483e-07
6.41082e-07
6.12526e-07
3.63374e-07
7.39347e-07
1.0338e-07
8.44034e-07
-1.22552e-07
9.28029e-07
-3.15219e-07
9.94166e-07
-4.78073e-07
1.04688e-06
-6.17288e-07
1.09107e-06
-7.39516e-07
1.13121e-06
-8.50502e-07
1.17051e-06
-9.54264e-07
1.21025e-06
-1.05258e-06
1.25005e-06
-1.14437e-06
1.28803e-06
-1.22648e-06
1.32123e-06
-1.29429e-06
1.34629e-06
-1.34248e-06
1.36006e-06
-1.36584e-06
1.36006e-06
-1.35996e-06
1.34485e-06
-1.32177e-06
1.31413e-06
-1.24996e-06
1.26865e-06
-1.14524e-06
1.20999e-06
-1.01041e-06
1.14019e-06
-8.49989e-07