/*--------------------------------*- C++ -*----------------------------------*\
| =========                 |                                                 |
| \\      /  F ield         | OpenFOAM: The Open Source CFD Toolbox           |
|  \\    /   O peration     | Version:  2412                                  |
|   \\  /    A nd           | Website:  www.openfoam.com                      |
|    \\/     M anipulation  |                                                 |
\*---------------------------------------------------------------------------*/
FoamFile
{
    version     2.0;
    format      ascii;
    arch        "LSB;label=32;scalar=64";
    class       volSymmTensorField;
    location    "2130";
    object      Rij;
}
// * * * * * * * * * * * * * * * * * * * * * * * * * * * * * * * * * * * * * //

dimensions      [0 2 -2 0 0 0 0];

internalField   nonuniform List<symmTensor> 
2304
(
(1.08715e-05 9.46998e-12 -1.02957e-07 1.08771e-05 1.09449e-10 1.08823e-05)
(1.08469e-05 2.76039e-11 -1.02608e-07 1.08525e-05 3.2553e-10 1.08577e-05)
(1.0804e-05 4.38021e-11 -1.01999e-07 1.08095e-05 5.3734e-10 1.08146e-05)
(1.07506e-05 5.76384e-11 -1.01245e-07 1.0756e-05 7.46602e-10 1.07611e-05)
(1.06945e-05 6.91273e-11 -1.00454e-07 1.06999e-05 9.53475e-10 1.07049e-05)
(1.06419e-05 7.86073e-11 -9.97151e-08 1.06472e-05 1.15656e-09 1.06522e-05)
(1.05966e-05 8.65983e-11 -9.90818e-08 1.06019e-05 1.35348e-09 1.06068e-05)
(1.05602e-05 9.36726e-11 -9.85753e-08 1.05654e-05 1.54136e-09 1.05703e-05)
(1.05322e-05 1.00356e-10 -9.81882e-08 1.05374e-05 1.71717e-09 1.05423e-05)
(1.05106e-05 1.07047e-10 -9.78919e-08 1.05158e-05 1.87812e-09 1.05207e-05)
(1.04926e-05 1.13957e-10 -9.76464e-08 1.04978e-05 2.02184e-09 1.05027e-05)
(1.04751e-05 1.21075e-10 -9.74091e-08 1.04803e-05 2.14665e-09 1.04851e-05)
(1.04557e-05 1.2819e-10 -9.71446e-08 1.04608e-05 2.25163e-09 1.04657e-05)
(1.04325e-05 1.35011e-10 -9.68292e-08 1.04376e-05 2.3365e-09 1.04424e-05)
(1.04047e-05 1.41334e-10 -9.64501e-08 1.04098e-05 2.40116e-09 1.04146e-05)
(1.03717e-05 1.47193e-10 -9.59995e-08 1.03768e-05 2.44536e-09 1.03816e-05)
(1.03327e-05 1.5295e-10 -9.54663e-08 1.03377e-05 2.4682e-09 1.03425e-05)
(1.02861e-05 1.59172e-10 -9.48271e-08 1.0291e-05 2.46813e-09 1.02958e-05)
(1.02291e-05 1.66547e-10 -9.40465e-08 1.0234e-05 2.44422e-09 1.02387e-05)
(1.01583e-05 1.75924e-10 -9.30766e-08 1.01631e-05 2.39511e-09 1.01678e-05)
(1.0069e-05 1.88031e-10 -9.18555e-08 1.00737e-05 2.31969e-09 1.00783e-05)
(9.95628e-06 2.03375e-10 -9.03197e-08 9.9609e-06 2.21809e-09 9.96542e-06)
(9.81519e-06 2.22113e-10 -8.84075e-08 9.81967e-06 2.09186e-09 9.82408e-06)
(9.64165e-06 2.43931e-10 -8.60726e-08 9.64597e-06 1.94469e-09 9.65024e-06)
(9.43289e-06 2.68055e-10 -8.32904e-08 9.43702e-06 1.78201e-09 9.44112e-06)
(9.188e-06 2.92961e-10 -8.00649e-08 9.19191e-06 1.61107e-09 9.19582e-06)
(8.90891e-06 3.16479e-10 -7.64404e-08 8.91258e-06 1.44014e-09 8.91626e-06)
(8.60045e-06 3.37956e-10 -7.25e-08 8.60387e-06 1.27545e-09 8.60731e-06)
(8.26607e-06 3.61347e-10 -6.8308e-08 8.26921e-06 1.10761e-09 8.27241e-06)
(7.90036e-06 3.89466e-10 -6.38196e-08 7.90322e-06 9.28623e-10 7.90617e-06)
(7.49908e-06 4.21306e-10 -5.90126e-08 7.50164e-06 7.43114e-10 7.50433e-06)
(7.05906e-06 4.5595e-10 -5.38876e-08 7.06131e-06 5.55429e-10 7.06373e-06)
(6.57746e-06 4.92268e-10 -4.84594e-08 6.5794e-06 3.71234e-10 6.58153e-06)
(6.05232e-06 5.27775e-10 -4.27643e-08 6.05395e-06 1.98398e-10 6.05579e-06)
(5.48413e-06 5.57964e-10 -3.68765e-08 5.48546e-06 4.72216e-11 5.48699e-06)
(4.87775e-06 5.76416e-10 -3.09237e-08 4.8788e-06 -7.09007e-11 4.88002e-06)
(4.24416e-06 5.75994e-10 -2.50904e-08 4.24496e-06 -1.46359e-10 4.24588e-06)
(3.60114e-06 5.51247e-10 -1.96031e-08 3.60172e-06 -1.75221e-10 3.60236e-06)
(2.9718e-06 5.01323e-10 -1.46905e-08 2.97222e-06 -1.62571e-10 2.97262e-06)
(2.38049e-06 4.31581e-10 -1.05287e-08 2.38078e-06 -1.2243e-10 2.381e-06)
(1.84778e-06 3.52351e-10 -7.19832e-09 1.84796e-06 -7.44569e-11 1.84807e-06)
(1.38492e-06 2.74188e-10 -4.66946e-09 1.38503e-06 -3.61414e-11 1.38509e-06)
(9.94039e-07 2.03585e-10 -2.83771e-09 9.94094e-07 -1.40389e-11 9.94122e-07)
(6.72405e-07 1.42829e-10 -1.57636e-09 6.7243e-07 -4.48812e-12 6.72444e-07)
(4.16273e-07 9.23024e-11 -7.65092e-10 4.16282e-07 -1.28645e-12 4.16288e-07)
(2.22394e-07 5.20796e-11 -2.96176e-10 2.22397e-07 -3.82086e-13 2.22399e-07)
(8.90719e-08 2.25702e-11 -7.30214e-11 8.90723e-08 -1.01981e-13 8.90726e-08)
(1.81821e-08 5.29182e-12 -5.29182e-12 1.81822e-08 -9.14733e-15 1.81822e-08)
(9.24091e-06 2.15282e-10 -5.20092e-07 9.40225e-06 4.98449e-10 9.56396e-06)
(9.21706e-06 6.30155e-10 -5.18148e-07 9.37763e-06 1.48174e-09 9.53855e-06)
(9.17443e-06 1.00857e-09 -5.14708e-07 9.33364e-06 2.44321e-09 9.49314e-06)
(9.11935e-06 1.34366e-09 -5.10328e-07 9.27685e-06 3.38927e-09 9.43457e-06)
(9.05799e-06 1.63533e-09 -5.05547e-07 9.21364e-06 4.31903e-09 9.36944e-06)
(8.9954e-06 1.88838e-09 -5.00799e-07 9.14923e-06 5.22418e-09 9.30317e-06)
(8.93495e-06 2.11025e-09 -4.96364e-07 9.08711e-06 6.09206e-09 9.23936e-06)
(8.87831e-06 2.30909e-09 -4.92368e-07 9.02899e-06 6.90818e-09 9.17977e-06)
(8.8256e-06 2.4922e-09 -4.88802e-07 8.97498e-06 7.65802e-09 9.12451e-06)
(8.77573e-06 2.66481e-09 -4.85554e-07 8.92395e-06 8.32876e-09 9.0724e-06)
(8.72689e-06 2.82934e-09 -4.82454e-07 8.87402e-06 8.9104e-09 9.02146e-06)
(8.67696e-06 2.98492e-09 -4.79313e-07 8.82297e-06 9.39673e-09 8.96942e-06)
(8.62419e-06 3.12791e-09 -4.75973e-07 8.76902e-06 9.78583e-09 8.91441e-06)
(8.56756e-06 3.25387e-09 -4.72341e-07 8.7111e-06 1.0079e-08 8.85531e-06)
(8.50687e-06 3.36008e-09 -4.68384e-07 8.64898e-06 1.02786e-08 8.79191e-06)
(8.44248e-06 3.44758e-09 -4.64112e-07 8.58303e-06 1.03862e-08 8.72455e-06)
(8.37484e-06 3.52242e-09 -4.59533e-07 8.5137e-06 1.04001e-08 8.65369e-06)
(8.30416e-06 3.59358e-09 -4.54621e-07 8.44117e-06 1.03162e-08 8.5795e-06)
(8.23058e-06 3.67185e-09 -4.49315e-07 8.36555e-06 1.01321e-08 8.50204e-06)
(8.15073e-06 3.76953e-09 -4.43371e-07 8.28338e-06 9.84025e-09 8.41777e-06)
(8.06102e-06 3.89729e-09 -4.36501e-07 8.19097e-06 9.43562e-09 8.32288e-06)
(7.95759e-06 4.06291e-09 -4.28408e-07 8.08434e-06 8.91827e-09 8.21328e-06)
(7.83602e-06 4.26933e-09 -4.18773e-07 7.95897e-06 8.29427e-09 8.0843e-06)
(7.69236e-06 4.51314e-09 -4.07337e-07 7.81083e-06 7.57907e-09 7.93183e-06)
(7.52343e-06 4.78458e-09 -3.93933e-07 7.63671e-06 6.79504e-09 7.7526e-06)
(7.32701e-06 5.06284e-09 -3.78499e-07 7.43442e-06 5.97296e-09 7.54442e-06)
(7.1029e-06 5.31715e-09 -3.61153e-07 7.20382e-06 5.15225e-09 7.30723e-06)
(6.85424e-06 5.53964e-09 -3.42253e-07 6.94819e-06 4.36604e-09 7.04458e-06)
(6.58523e-06 5.79137e-09 -3.2218e-07 6.67186e-06 3.57296e-09 6.76103e-06)
(6.2921e-06 6.11456e-09 -3.00753e-07 6.37106e-06 2.74053e-09 6.45272e-06)
(5.97262e-06 6.49616e-09 -2.77928e-07 6.0436e-06 1.89692e-09 6.11741e-06)
(5.6247e-06 6.92513e-09 -2.5373e-07 5.68746e-06 1.06336e-09 5.75314e-06)
(5.24524e-06 7.38669e-09 -2.28189e-07 5.29962e-06 2.63092e-10 5.35694e-06)
(4.83047e-06 7.84419e-09 -2.01379e-07 4.87642e-06 -4.69915e-10 4.92522e-06)
(4.37726e-06 8.22751e-09 -1.73517e-07 4.41491e-06 -1.0881e-09 4.45512e-06)
(3.8851e-06 8.43264e-09 -1.45066e-07 3.91482e-06 -1.53537e-09 3.94657e-06)
(3.35859e-06 8.3388e-09 -1.16811e-07 3.38103e-06 -1.76107e-09 3.40476e-06)
(2.80983e-06 7.84884e-09 -8.98575e-08 2.82592e-06 -1.74138e-09 2.84247e-06)
(2.25928e-06 6.94371e-09 -6.54815e-08 2.27016e-06 -1.50151e-09 2.28074e-06)
(1.73313e-06 5.71635e-09 -4.48083e-08 1.74001e-06 -1.11935e-09 1.74613e-06)
(1.25945e-06 4.36351e-09 -2.85717e-08 1.26346e-06 -7.14598e-10 1.26665e-06)
(8.59719e-07 3.0891e-09 -1.68054e-08 8.61837e-07 -3.94952e-10 8.63356e-07)
(5.44093e-07 2.02034e-09 -8.95731e-09 5.45079e-07 -1.95379e-10 5.45739e-07)
(3.12639e-07 1.202e-09 -4.19629e-09 3.13033e-07 -8.81392e-11 3.13282e-07)
(1.5756e-07 6.28693e-10 -1.63675e-09 1.5769e-07 -3.48066e-11 1.57763e-07)
(6.60219e-08 2.68478e-10 -4.75447e-10 6.60542e-08 -1.03995e-11 6.60665e-08)
(2.7918e-08 9.27001e-11 -9.27001e-11 2.79232e-08 -1.68866e-12 2.79232e-08)
(8.90719e-08 7.30213e-11 -2.25702e-11 8.90726e-08 -1.01973e-13 8.90723e-08)
(5.08797e-05 8.30458e-09 -9.20686e-06 5.81002e-05 7.09086e-09 6.53636e-05)
(5.07568e-05 2.43008e-08 -9.17329e-06 5.79463e-05 2.11003e-08 6.51784e-05)
(5.05357e-05 3.89458e-08 -9.11389e-06 5.76703e-05 3.50547e-08 6.48461e-05)
(5.02469e-05 5.20332e-08 -9.03774e-06 5.73115e-05 4.92368e-08 6.44158e-05)
(4.99202e-05 6.3533e-08 -8.95379e-06 5.69082e-05 6.35748e-08 6.39345e-05)
(4.95802e-05 7.3591e-08 -8.86926e-06 5.64918e-05 7.78359e-08 6.3441e-05)
(4.92437e-05 8.24398e-08 -8.78886e-06 5.60835e-05 9.16715e-08 6.29608e-05)
(4.89197e-05 9.03347e-08 -8.71479e-06 5.56943e-05 1.0469e-07 6.2507e-05)
(4.86098e-05 9.75043e-08 -8.64702e-06 5.53255e-05 1.1651e-07 6.20809e-05)
(4.83095e-05 1.04112e-07 -8.5838e-06 5.49711e-05 1.26814e-07 6.16744e-05)
(4.80108e-05 1.10232e-07 -8.52241e-06 5.46202e-05 1.35377e-07 6.12741e-05)
(4.77039e-05 1.15837e-07 -8.45973e-06 5.42601e-05 1.42102e-07 6.08641e-05)
(4.73808e-05 1.20817e-07 -8.39325e-06 5.38805e-05 1.47015e-07 6.04312e-05)
(4.7037e-05 1.25041e-07 -8.32143e-06 5.34752e-05 1.50227e-07 5.99681e-05)
(4.66725e-05 1.28439e-07 -8.24384e-06 5.30437e-05 1.51846e-07 5.94736e-05)
(4.62901e-05 1.31062e-07 -8.16076e-06 5.25892e-05 1.51911e-07 5.8951e-05)
(4.5894e-05 1.33123e-07 -8.07251e-06 5.21156e-05 1.50321e-07 5.84045e-05)
(4.54876e-05 1.34936e-07 -7.97902e-06 5.16261e-05 1.46896e-07 5.7837e-05)
(4.50772e-05 1.36892e-07 -7.88137e-06 5.11278e-05 1.41455e-07 5.72564e-05)
(4.46435e-05 1.39345e-07 -7.77393e-06 5.05961e-05 1.33632e-07 5.66327e-05)
(4.41687e-05 1.42644e-07 -7.6519e-06 5.00089e-05 1.23183e-07 5.59392e-05)
(4.36335e-05 1.47043e-07 -7.51025e-06 4.93424e-05 1.09999e-07 5.51472e-05)
(4.30147e-05 1.52633e-07 -7.34351e-06 4.85686e-05 9.41583e-08 5.42236e-05)
(4.22908e-05 1.593e-07 -7.14715e-06 4.76625e-05 7.60179e-08 5.3139e-05)
(4.14432e-05 1.66724e-07 -6.91801e-06 4.66033e-05 5.61354e-08 5.18701e-05)
(4.04571e-05 1.74236e-07 -6.65456e-06 4.53758e-05 3.53722e-08 5.04005e-05)
(3.93266e-05 1.80877e-07 -6.35796e-06 4.39762e-05 1.50075e-08 4.87284e-05)
(3.80643e-05 1.86479e-07 -6.03355e-06 4.24218e-05 -3.93425e-09 4.68789e-05)
(3.66916e-05 1.93083e-07 -5.68787e-06 4.07405e-05 -2.30408e-08 4.48888e-05)
(3.51882e-05 2.02076e-07 -5.31791e-06 3.89106e-05 -4.33881e-08 4.27321e-05)
(3.35415e-05 2.13062e-07 -4.92323e-06 3.69208e-05 -6.39801e-08 4.03974e-05)
(3.1738e-05 2.25691e-07 -4.50425e-06 3.47598e-05 -8.41566e-08 3.78749e-05)
(2.97556e-05 2.39463e-07 -4.0611e-06 3.24082e-05 -1.0325e-07 3.51468e-05)
(2.75654e-05 2.5316e-07 -3.59439e-06 2.98407e-05 -1.20106e-07 3.21902e-05)
(2.5138e-05 2.64488e-07 -3.10691e-06 2.70341e-05 -1.32904e-07 2.89865e-05)
(2.24554e-05 2.70069e-07 -2.60555e-06 2.39794e-05 -1.39305e-07 2.55358e-05)
(1.95265e-05 2.65982e-07 -2.10309e-06 2.06983e-05 -1.37005e-07 2.1874e-05)
(1.64064e-05 2.4906e-07 -1.61871e-06 1.72603e-05 -1.2476e-07 1.80894e-05)
(1.32079e-05 2.18682e-07 -1.17614e-06 1.37918e-05 -1.03548e-07 1.43288e-05)
(1.00958e-05 1.78169e-07 -7.9892e-07 1.04672e-05 -7.70389e-08 1.07819e-05)
(7.25068e-06 1.33589e-07 -5.00918e-07 7.46725e-06 -5.05346e-08 7.63175e-06)
(4.83116e-06 9.17218e-08 -2.85478e-07 4.94494e-06 -2.91756e-08 5.0209e-06)
(2.9285e-06 5.69673e-08 -1.44126e-07 2.98113e-06 -1.4835e-08 3.01114e-06)
(1.56235e-06 3.09038e-08 -6.13474e-08 1.58293e-06 -6.40135e-09 1.59209e-06)
(6.90083e-07 1.33324e-08 -1.96613e-08 6.96168e-07 -2.02403e-09 6.97747e-07)
(2.24817e-07 3.51648e-09 -3.51648e-09 2.2575e-07 -2.96632e-10 2.2575e-07)
(6.60218e-08 4.75447e-10 -2.68478e-10 6.60665e-08 -1.03997e-11 6.60542e-08)
(2.22394e-07 2.96176e-10 -5.20796e-11 2.22399e-07 -3.82127e-13 2.22397e-07)
(0.00015289 6.19741e-08 -6.10858e-05 0.000207562 3.59296e-08 0.000261543)
(0.000152521 1.80548e-07 -6.08913e-05 0.000207046 1.07272e-07 0.000260879)
(0.000151856 2.86888e-07 -6.05419e-05 0.00020612 1.80059e-07 0.000259692)
(0.000150989 3.78696e-07 -6.00919e-05 0.000204912 2.56817e-07 0.000258144)
(0.000150009 4.55641e-07 -5.95923e-05 0.000203547 3.37022e-07 0.000256399)
(0.00014899 5.19343e-07 -5.90845e-05 0.000202128 4.18812e-07 0.000254591)
(0.000147981 5.72455e-07 -5.85958e-05 0.000200727 4.9932e-07 0.000252811)
(0.00014701 6.1798e-07 -5.81393e-05 0.00019938 5.75274e-07 0.000251106)
(0.000146079 6.58729e-07 -5.77151e-05 0.000198091 6.43498e-07 0.000249484)
(0.000145176 6.96878e-07 -5.73139e-05 0.000196842 7.0137e-07 0.000247919)
(0.000144277 7.33683e-07 -5.69201e-05 0.000195599 7.47124e-07 0.000246367)
(0.000143351 7.69284e-07 -5.6516e-05 0.000194319 7.80129e-07 0.000244771)
(0.000142375 8.02861e-07 -5.6087e-05 0.000192968 8.00887e-07 0.000243089)
(0.000141336 8.33259e-07 -5.5624e-05 0.000191528 8.1057e-07 0.000241293)
(0.000140233 8.59829e-07 -5.51245e-05 0.000189995 8.10233e-07 0.000239381)
(0.000139074 8.83161e-07 -5.45901e-05 0.000188381 8.00143e-07 0.000237367)
(0.00013787 9.0554e-07 -5.4023e-05 0.0001867 7.79135e-07 0.000235267)
(0.000136633 9.30378e-07 -5.34234e-05 0.000184962 7.45147e-07 0.000233096)
(0.000135374 9.61339e-07 -5.27987e-05 0.000183188 6.95797e-07 0.000230878)
(0.000134043 1.00235e-06 -5.21155e-05 0.000181299 6.27248e-07 0.000228511)
(0.000132589 1.05731e-06 -5.13456e-05 0.000179226 5.36471e-07 0.0002259)
(0.000130959 1.12881e-06 -5.04595e-05 0.000176888 4.21384e-07 0.00022294)
(0.000129089 1.21755e-06 -4.94241e-05 0.000174195 2.81414e-07 0.000219506)
(0.000126921 1.32178e-06 -4.82114e-05 0.000171062 1.18385e-07 0.000215484)
(0.000124409 1.43741e-06 -4.68004e-05 0.00016742 -6.43369e-08 0.000210776)
(0.000121516 1.55691e-06 -4.51787e-05 0.000163215 -2.60804e-07 0.000205305)
(0.00011823 1.66978e-06 -4.33459e-05 0.000158423 -4.60705e-07 0.000199035)
(0.00011458 1.77314e-06 -4.13237e-05 0.000153076 -6.54958e-07 0.000192015)
(0.000110622 1.88807e-06 -3.91435e-05 0.000147247 -8.58628e-07 0.000184343)
(0.000106316 2.03009e-06 -3.67891e-05 0.000140879 -1.08274e-06 0.00017593)
(0.000101638 2.19457e-06 -3.42576e-05 0.000133944 -1.3198e-06 0.000166723)
(9.65534e-05 2.37739e-06 -3.15481e-05 0.000126398 -1.5653e-06 0.000156668)
(9.10006e-05 2.57206e-06 -2.86567e-05 0.000118174 -1.81382e-06 0.000145675)
(8.48894e-05 2.76386e-06 -2.55814e-05 0.00010918 -2.05242e-06 0.000133632)
(7.81148e-05 2.92607e-06 -2.23323e-05 9.93251e-05 -2.25659e-06 0.000120449)
(7.05816e-05 3.01976e-06 -1.89439e-05 8.8556e-05 -2.38921e-06 0.000106114)
(6.22458e-05 2.99966e-06 -1.54895e-05 7.69084e-05 -2.40513e-06 9.077e-05)
(5.3172e-05 2.8282e-06 -1.20892e-05 6.45706e-05 -2.26519e-06 7.47984e-05)
(4.35916e-05 2.49562e-06 -8.90603e-06 5.19372e-05 -1.95886e-06 5.8851e-05)
(3.39284e-05 2.03748e-06 -6.11976e-06 3.96094e-05 -1.5232e-06 4.37964e-05)
(2.47565e-05 1.52429e-06 -3.86022e-06 2.82875e-05 -1.04222e-06 3.05018e-05)
(1.66727e-05 1.03532e-06 -2.18724e-06 1.86345e-05 -6.1923e-07 1.96251e-05)
(1.01284e-05 6.22976e-07 -1.0712e-06 1.10688e-05 -3.11184e-07 1.14137e-05)
(5.34603e-06 3.10532e-07 -4.18552e-07 5.70225e-06 -1.19848e-07 5.77336e-06)
(2.28671e-06 1.09002e-07 -1.09001e-07 2.37092e-06 -2.68695e-08 2.37092e-06)
(6.90082e-07 1.96613e-08 -1.33323e-08 6.97747e-07 -2.02404e-09 6.96168e-07)
(1.5756e-07 1.63675e-09 -6.28691e-10 1.57763e-07 -3.48076e-11 1.5769e-07)
(4.16273e-07 7.65092e-10 -9.23022e-11 4.16288e-07 -1.28683e-12 4.16282e-07)
(0.00040726 1.16098e-07 -0.00018771 0.000470388 1.12058e-07 0.000528993)
(0.000406163 3.33873e-07 -0.000187244 0.000469392 3.33315e-07 0.000528072)
(0.000404199 5.14571e-07 -0.000186402 0.000467594 5.47997e-07 0.00052643)
(0.000401661 6.47537e-07 -0.000185306 0.000465232 7.56456e-07 0.000524237)
(0.000398826 7.32443e-07 -0.000184075 0.000462534 9.59178e-07 0.000521681)
(0.000395922 7.76666e-07 -0.000182801 0.000459692 1.15408e-06 0.000518927)
(0.000393098 7.92301e-07 -0.00018155 0.000456838 1.33776e-06 0.00051609)
(0.000390429 7.93282e-07 -0.000180353 0.000454042 1.50607e-06 0.000513244)
(0.000387917 7.93006e-07 -0.000179214 0.000451318 1.65471e-06 0.000510411)
(0.000385512 8.02274e-07 -0.000178113 0.000448634 1.78002e-06 0.000507578)
(0.00038313 8.27938e-07 -0.000177016 0.000445929 1.87939e-06 0.000504703)
(0.000380674 8.71949e-07 -0.000175883 0.000443127 1.95188e-06 0.000501729)
(0.00037806 9.31822e-07 -0.00017468 0.000440166 1.99835e-06 0.000498612)
(0.000375237 1.00313e-06 -0.000173387 0.000437011 2.02088e-06 0.000495328)
(0.000372189 1.08313e-06 -0.000171997 0.00043366 2.02167e-06 0.000491892)
(0.000368922 1.17387e-06 -0.000170516 0.000430135 2.00197e-06 0.000488341)
(0.000365448 1.28443e-06 -0.000168951 0.000426464 1.96059e-06 0.000484724)
(0.000361773 1.42849e-06 -0.000167304 0.000422671 1.89458e-06 0.000481081)
(0.000357926 1.61973e-06 -0.000165588 0.000418771 1.80062e-06 0.000477417)
(0.000353737 1.87582e-06 -0.000163731 0.000414647 1.67153e-06 0.000473661)
(0.000349057 2.21343e-06 -0.000161667 0.000410168 1.50023e-06 0.000469695)
(0.000343727 2.64373e-06 -0.000159324 0.00040519 1.27946e-06 0.000465378)
(0.000337569 3.17015e-06 -0.000156618 0.000399536 1.00234e-06 0.000460524)
(0.000330432 3.78555e-06 -0.000153473 0.000393046 6.64601e-07 0.000454945)
(0.000322209 4.47449e-06 -0.000149829 0.000385576 2.62045e-07 0.000448458)
(0.000312831 5.21102e-06 -0.000145636 0.000377007 -2.0853e-07 0.000440885)
(0.000302267 5.95884e-06 -0.000140863 0.000367255 -7.46413e-07 0.000432076)
(0.000290556 6.70121e-06 -0.0001355 0.000356295 -1.34995e-06 0.000421972)
(0.000277794 7.51345e-06 -0.000129538 0.000344164 -2.03477e-06 0.000410641)
(0.000264036 8.46038e-06 -0.00012299 0.000330822 -2.81322e-06 0.000397796)
(0.000249331 9.52733e-06 -0.00011584 0.000316217 -3.70242e-06 0.000383241)
(0.000233702 1.07036e-05 -0.000108057 0.000300245 -4.72067e-06 0.000366692)
(0.000217135 1.19649e-05 -9.95963e-05 0.00028274 -5.88267e-06 0.00034775)
(0.000199589 1.32467e-05 -9.04079e-05 0.000263481 -7.17751e-06 0.000325916)
(0.00018101 1.44246e-05 -8.04618e-05 0.000242223 -8.5444e-06 0.000300656)
(0.000161362 1.53045e-05 -6.97833e-05 0.000218749 -9.84693e-06 0.000271528)
(0.000140681 1.56376e-05 -5.85038e-05 0.000192958 -1.0858e-05 0.000238373)
(0.000119157 1.51759e-05 -4.69196e-05 0.000164999 -1.12801e-05 0.000201583)
(9.72265e-05 1.37676e-05 -3.55306e-05 0.000135438 -1.08267e-05 0.00016236)
(7.56339e-05 1.14837e-05 -2.50146e-05 0.000105362 -9.34094e-06 0.000122844)
(5.54154e-05 8.66919e-06 -1.60349e-05 7.64089e-05 -7.01129e-06 8.59666e-05)
(3.76579e-05 5.81757e-06 -9.05444e-06 5.05988e-05 -4.42796e-06 5.46663e-05)
(2.32068e-05 3.32499e-06 -4.23573e-06 2.97084e-05 -2.20634e-06 3.07728e-05)
(1.24646e-05 1.46547e-06 -1.46546e-06 1.47551e-05 -7.35673e-07 1.47551e-05)
(5.34603e-06 4.18552e-07 -3.10531e-07 5.77335e-06 -1.19848e-07 5.70224e-06)
(1.56234e-06 6.13473e-08 -3.09037e-08 1.59209e-06 -6.40139e-09 1.58293e-06)
(3.12639e-07 4.19628e-09 -1.202e-09 3.13282e-07 -8.81433e-11 3.13033e-07)
(6.72405e-07 1.57636e-09 -1.42829e-10 6.72444e-07 -4.48954e-12 6.7243e-07)
(0.000848682 1.27043e-07 -0.000345853 0.00076812 2.39275e-07 0.000685588)
(0.000846861 3.53041e-07 -0.000345193 0.000766807 7.03067e-07 0.000684734)
(0.000843614 5.06476e-07 -0.000344006 0.000764424 1.11891e-06 0.000683127)
(0.0008394 5.6496e-07 -0.000342446 0.000761252 1.47035e-06 0.0006809)
(0.000834669 5.28185e-07 -0.000340666 0.000757568 1.76081e-06 0.000678187)
(0.000829785 4.14859e-07 -0.000338791 0.000753602 1.99646e-06 0.000675107)
(0.000824991 2.54904e-07 -0.000336907 0.000749516 2.18698e-06 0.000671758)
(0.000820409 8.26881e-08 -0.000335059 0.000745401 2.3429e-06 0.000668212)
(0.000816041 -6.88023e-08 -0.000333255 0.000741282 2.47378e-06 0.000664515)
(0.000811808 -1.72946e-07 -0.000331472 0.000737128 2.58697e-06 0.000660683)
(0.000807567 -2.1276e-07 -0.000329669 0.000732871 2.68697e-06 0.000656712)
(0.000803155 -1.83037e-07 -0.000327792 0.000728426 2.7754e-06 0.000652582)
(0.000798424 -8.91671e-08 -0.000325798 0.000723719 2.8519e-06 0.000648284)
(0.000793269 5.87056e-08 -0.000323656 0.000718711 2.91595e-06 0.000643835)
(0.00078764 2.54183e-07 -0.000321359 0.000713405 2.9688e-06 0.000639285)
(0.000781524 5.01928e-07 -0.000318913 0.000707836 3.01515e-06 0.000634716)
(0.000774918 8.23029e-07 -0.000316329 0.000702047 3.06226e-06 0.000630225)
(0.000767818 1.24895e-06 -0.000313616 0.000696073 3.11893e-06 0.000625884)
(0.00076028 1.81063e-06 -0.000310784 0.000689922 3.19444e-06 0.000621662)
(0.000751994 2.54902e-06 -0.000307748 0.000683481 3.29299e-06 0.000617625)
(0.000742701 3.5031e-06 -0.000304419 0.0006766 3.41657e-06 0.000613714)
(0.000732133 4.69976e-06 -0.000300698 0.000669104 3.55884e-06 0.000609829)
(0.000719975 6.14873e-06 -0.000296467 0.000660774 3.70352e-06 0.00060582)
(0.000705955 7.83573e-06 -0.000291612 0.000651398 3.82746e-06 0.000601512)
(0.000689867 9.73152e-06 -0.000286039 0.000640772 3.89932e-06 0.00059671)
(0.000671553 1.17954e-05 -0.000279664 0.0006287 3.88065e-06 0.000591213)
(0.000650851 1.39892e-05 -0.000272403 0.000615 3.73843e-06 0.000584835)
(0.000627562 1.63271e-05 -0.000264157 0.000599546 3.48385e-06 0.000577389)
(0.000601505 1.88855e-05 -0.000254824 0.000582244 3.0868e-06 0.000568667)
(0.000572965 2.17417e-05 -0.000244442 0.000563123 2.49083e-06 0.000558573)
(0.000542078 2.49239e-05 -0.000232969 0.000542042 1.65742e-06 0.000546765)
(0.000508872 2.84323e-05 -0.000220305 0.000518818 4.87925e-07 0.000532722)
(0.000473353 3.22233e-05 -0.00020631 0.000493148 -1.1185e-06 0.000515693)
(0.000435506 3.61609e-05 -0.000190816 0.000464617 -3.23585e-06 0.000494694)
(0.000395273 3.99696e-05 -0.000173643 0.000432713 -5.87141e-06 0.00046857)
(0.00035253 4.32012e-05 -0.000154644 0.000396881 -8.91939e-06 0.000436135)
(0.000307145 4.52348e-05 -0.000133778 0.000356638 -1.21242e-05 0.000396387)
(0.000259178 4.53418e-05 -0.000111242 0.000311771 -1.50761e-05 0.000348845)
(0.000209241 4.28258e-05 -8.76152e-05 0.00026272 -1.72499e-05 0.000293942)
(0.000158941 3.72796e-05 -6.40165e-05 0.000210721 -1.78949e-05 0.000233475)
(0.0001115 2.9038e-05 -4.2087e-05 0.000157896 -1.62897e-05 0.000171226)
(7.16767e-05 1.95051e-05 -2.37694e-05 0.000107541 -1.22957e-05 0.000112621)
(4.26546e-05 1.06327e-05 -1.06327e-05 6.37181e-05 -6.8292e-06 6.37182e-05)
(2.32067e-05 4.23573e-06 -3.32497e-06 3.07728e-05 -2.20634e-06 2.97084e-05)
(1.01283e-05 1.0712e-06 -6.22972e-07 1.14137e-05 -3.11184e-07 1.10688e-05)
(2.92849e-06 1.44126e-07 -5.6967e-08 3.01113e-06 -1.48351e-08 2.98112e-06)
(5.44092e-07 8.95728e-09 -2.02033e-09 5.45738e-07 -1.95391e-10 5.45078e-07)
(9.94038e-07 2.83771e-09 -2.03584e-10 9.94121e-07 -1.40427e-11 9.94094e-07)
(0.00122521 2.28231e-07 -0.000477432 0.00102686 3.26823e-07 0.000828804)
(0.0012235 6.34142e-07 -0.000476771 0.00102544 9.41103e-07 0.000827675)
(0.00122037 9.09404e-07 -0.00047554 0.00102282 1.45683e-06 0.000825515)
(0.00121614 1.01472e-06 -0.000473881 0.00101928 1.8496e-06 0.000822615)
(0.00121111 9.51909e-07 -0.00047192 0.00101508 2.11848e-06 0.000819205)
(0.00120557 7.56888e-07 -0.000469765 0.00101043 2.27961e-06 0.000815479)
(0.00119969 4.85548e-07 -0.000467492 0.00100549 2.35984e-06 0.000811579)
(0.0011936 2.01203e-07 -0.000465149 0.00100036 2.38982e-06 0.000807592)
(0.00118735 -3.61771e-08 -0.000462753 0.000995067 2.39833e-06 0.000803545)
(0.00118091 -1.78953e-07 -0.000460297 0.000989599 2.40814e-06 0.000799426)
(0.00117424 -1.97325e-07 -0.000457755 0.000983902 2.43361e-06 0.000795181)
(0.00116723 -8.22534e-08 -0.000455089 0.000977902 2.4803e-06 0.000790743)
(0.00115981 1.57365e-07 -0.000452269 0.000971541 2.5472e-06 0.00078605)
(0.00115196 5.05232e-07 -0.00044928 0.000964787 2.63175e-06 0.000781067)
(0.00114369 9.52391e-07 -0.000446125 0.000957655 2.73539e-06 0.0007758)
(0.00113507 1.5094e-06 -0.000442829 0.000950192 2.86855e-06 0.000770284)
(0.00112618 2.21529e-06 -0.000439423 0.000942458 3.04948e-06 0.000764574)
(0.00111709 3.1264e-06 -0.000435929 0.000934505 3.301e-06 0.000758709)
(0.00110781 4.29898e-06 -0.000432355 0.000926349 3.65215e-06 0.000752708)
(0.00109828 5.8046e-06 -0.000428662 0.00091791 4.12969e-06 0.000746503)
(0.00108833 7.71351e-06 -0.000424783 0.000909058 4.75703e-06 0.000739978)
(0.00107778 1.00782e-05 -0.000420632 0.000899628 5.54771e-06 0.000732995)
(0.00106635 1.29246e-05 -0.000416093 0.000889404 6.50253e-06 0.000725363)
(0.00105379 1.62403e-05 -0.000411046 0.000878155 7.61609e-06 0.000716887)
(0.0010398 1.99917e-05 -0.000405373 0.000865636 8.8785e-06 0.000707395)
(0.00102413 2.41345e-05 -0.000398959 0.000851573 1.02842e-05 0.000696732)
(0.00100646 2.86328e-05 -0.000391675 0.000835673 1.18456e-05 0.000684726)
(0.000984875 3.35063e-05 -0.000383077 0.000817816 1.34779e-05 0.000672446)
(0.000950487 3.87508e-05 -0.000371529 0.000797868 1.43657e-05 0.000667051)
(0.000913028 4.46219e-05 -0.00035866 0.000775748 1.50761e-05 0.000660308)
(0.000872783 5.11345e-05 -0.000344418 0.000751157 1.55436e-05 0.000651707)
(0.000829902 5.82745e-05 -0.000328651 0.000723807 1.57005e-05 0.00064043)
(0.000784489 6.59358e-05 -0.000311153 0.000693192 1.55096e-05 0.000625375)
(0.000736488 7.38573e-05 -0.000291655 0.000658595 1.49874e-05 0.000605236)
(0.000685462 8.15575e-05 -0.000269818 0.000619097 1.41958e-05 0.000578662)
(0.000630349 8.82783e-05 -0.000245238 0.000573643 1.31661e-05 0.000544487)
(0.000569303 9.29529e-05 -0.000217511 0.000521231 1.17448e-05 0.000501986)
(0.000499793 9.42409e-05 -0.000186367 0.000461261 9.40244e-06 0.000451097)
(0.000419354 9.07315e-05 -0.000151926 0.000394482 5.15038e-06 0.000392398)
(0.000327261 8.1232e-05 -0.000115057 0.000323297 -1.51533e-06 0.000326619)
(0.000226967 6.51807e-05 -7.78463e-05 0.000251173 -9.7245e-06 0.000255348)
(0.00013461 4.4388e-05 -4.43879e-05 0.000180745 -1.54103e-05 0.000180746)
(7.16765e-05 2.37694e-05 -1.9505e-05 0.000112621 -1.22957e-05 0.00010754)
(3.76578e-05 9.05442e-06 -5.81752e-06 5.4666e-05 -4.42794e-06 5.05987e-05)
(1.66726e-05 2.18723e-06 -1.03531e-06 1.9625e-05 -6.19229e-07 1.86345e-05)
(4.83114e-06 2.85477e-07 -9.17211e-08 5.02087e-06 -2.91758e-08 4.94492e-06)
(8.59716e-07 1.68053e-08 -3.08907e-09 8.63352e-07 -3.9498e-10 8.61834e-07)
(1.38492e-06 4.66946e-09 -2.74188e-10 1.38508e-06 -3.61497e-11 1.38503e-06)
(0.00146304 4.0929e-07 -0.000569569 0.00123041 3.31418e-07 0.000986286)
(0.00146131 1.14691e-06 -0.000568899 0.00122897 9.32517e-07 0.000985149)
(0.0014581 1.67701e-06 -0.000567655 0.0012263 1.39959e-06 0.000983016)
(0.00145369 1.94038e-06 -0.000565949 0.00122262 1.71011e-06 0.000980101)
(0.00144833 1.94203e-06 -0.000563888 0.00121814 1.85779e-06 0.000976599)
(0.00144227 1.73858e-06 -0.000561563 0.00121305 1.86679e-06 0.000972671)
(0.00143565 1.41695e-06 -0.000559042 0.00120748 1.77666e-06 0.000968444)
(0.00142862 1.07485e-06 -0.000556372 0.00120153 1.63231e-06 0.000963999)
(0.00142121 8.04348e-07 -0.000553572 0.00119522 1.4758e-06 0.000959375)
(0.00141344 6.78355e-07 -0.000550645 0.00118858 1.34058e-06 0.000954569)
(0.00140527 7.4305e-07 -0.000547574 0.00118156 1.24803e-06 0.00094955)
(0.00139665 1.0148e-06 -0.000544333 0.00117411 1.20708e-06 0.000944265)
(0.00138751 1.48516e-06 -0.000540898 0.00116621 1.21762e-06 0.000938665)
(0.00137785 2.13637e-06 -0.00053726 0.00115783 1.27726e-06 0.000932723)
(0.0013677 2.96207e-06 -0.00053343 0.001149 1.38879e-06 0.000926453)
(0.00135716 3.98369e-06 -0.000529436 0.00113978 1.56722e-06 0.0009199)
(0.00134632 5.26196e-06 -0.000525318 0.00113025 1.83604e-06 0.000913135)
(0.00133528 6.87965e-06 -0.000521107 0.00112047 2.22349e-06 0.000906214)
(0.0013241 8.92252e-06 -0.00051682 0.00111049 2.77053e-06 0.000899178)
(0.00131274 1.14968e-05 -0.000512437 0.00110026 3.51112e-06 0.000892005)
(0.00130111 1.47019e-05 -0.000507901 0.0010897 4.47334e-06 0.00088462)
(0.00128905 1.86147e-05 -0.000503141 0.00107866 5.67182e-06 0.000876929)
(0.00127634 2.32759e-05 -0.000498042 0.00106696 7.104e-06 0.00086877)
(0.00126271 2.86739e-05 -0.000492476 0.00105437 8.76666e-06 0.000859966)
(0.00124788 3.4771e-05 -0.000486305 0.00104063 1.06588e-05 0.000850339)
(0.00123153 4.15224e-05 -0.000479381 0.00102546 1.28015e-05 0.000839712)
(0.00121332 4.88877e-05 -0.000471538 0.00100853 1.52432e-05 0.000827885)
(0.00119289 5.68816e-05 -0.000462582 0.000989669 1.79583e-05 0.000814596)
(0.00116992 6.58058e-05 -0.000452271 0.00096864 2.09733e-05 0.000799579)
(0.00114426 7.58841e-05 -0.000440488 0.000945112 2.42842e-05 0.000783109)
(0.00111557 8.70393e-05 -0.000427007 0.000918667 2.78192e-05 0.000765154)
(0.00108325 9.91372e-05 -0.000411475 0.000888801 3.15311e-05 0.000745465)
(0.00104645 0.000111866 -0.000393444 0.000854808 3.52998e-05 0.000723601)
(0.00100406 0.000124667 -0.000372399 0.000815802 3.89138e-05 0.000698857)
(0.000954659 0.000136691 -0.000347801 0.000770725 4.2061e-05 0.000670171)
(0.00089657 0.000146791 -0.000319147 0.000718397 4.43267e-05 0.000636055)
(0.00082791 0.000153553 -0.000286075 0.000657565 4.52293e-05 0.000594599)
(0.000746833 0.000155328 -0.000248514 0.00058685 4.43023e-05 0.000543611)
(0.000652036 0.000150429 -0.000206971 0.000505681 4.10184e-05 0.000480977)
(0.000543531 0.000137851 -0.000162508 0.00041559 3.53903e-05 0.000405485)
(0.00039041 0.000112661 -0.000112661 0.000332523 1.44522e-05 0.000332524)
(0.000226966 7.78462e-05 -6.51805e-05 0.000255347 -9.7246e-06 0.000251173)
(0.0001115 4.20869e-05 -2.90378e-05 0.000171225 -1.62897e-05 0.000157895)
(5.54151e-05 1.60348e-05 -8.66909e-06 8.5966e-05 -7.01125e-06 7.64085e-05)
(2.47564e-05 3.8602e-06 -1.52427e-06 3.05016e-05 -1.04222e-06 2.82873e-05)
(7.25063e-06 5.00915e-07 -1.33588e-07 7.63169e-06 -5.05351e-08 7.46721e-06)
(1.25945e-06 2.85715e-08 -4.36347e-09 1.26665e-06 -7.14654e-10 1.26346e-06)
(1.84777e-06 7.19831e-09 -3.5235e-10 1.84807e-06 -7.44728e-11 1.84795e-06)
(0.0016454 6.19284e-07 -0.000640432 0.00138589 2.94277e-07 0.00110815)
(0.00164371 1.7394e-06 -0.000639768 0.00138448 8.14545e-07 0.001107)
(0.00164053 2.56342e-06 -0.000638541 0.00138184 1.17581e-06 0.00110492)
(0.00163606 3.01407e-06 -0.000636827 0.00137813 1.34395e-06 0.00110202)
(0.00163051 3.1006e-06 -0.000634709 0.0013735 1.31513e-06 0.00109847)
(0.00162405 2.90437e-06 -0.000632258 0.00136807 1.1219e-06 0.00109438)