/*--------------------------------*- C++ -*----------------------------------*\
| =========                 |                                                 |
| \\      /  F ield         | OpenFOAM: The Open Source CFD Toolbox           |
|  \\    /   O peration     | Version:  2412                                  |
|   \\  /    A nd           | Website:  www.openfoam.com                      |
|    \\/     M anipulation  |                                                 |
\*---------------------------------------------------------------------------*/
FoamFile
{
    version     2.0;
    format      ascii;
    arch        "LSB;label=32;scalar=64";
    class       volSymmTensorField;
    location    "2130";
    object      Sij;
}
// * * * * * * * * * * * * * * * * * * * * * * * * * * * * * * * * * * * * * //

dimensions      [0 0 -1 0 0 0 0];

internalField   nonuniform List<symmTensor> 
2304
(
(-5.68666e-17 -0.000270031 7.77859 -0.00207929 -0.00828353 0.0218653)
(0 -0.0007644 7.7698 -0.00213149 -0.024691 0.0219919)
(0 -0.00113779 7.75442 -0.00222544 -0.0409116 0.0220116)
(-6.51078e-17 -0.00135076 7.73528 -0.0023381 -0.0571136 0.0220279)
(0 -0.00140093 7.71517 -0.00244451 -0.0733037 0.0220225)
(-7.12552e-17 -0.00131569 7.69631 -0.00252345 -0.089336 0.0219777)
(-7.45433e-17 -0.00114108 7.68014 -0.00255924 -0.104972 0.0218809)
(-7.79831e-17 -0.000930904 7.66723 -0.00254266 -0.119936 0.0217251)
(0 -0.000737682 7.65743 -0.00247094 -0.133956 0.0215077)
(0 -0.000604316 7.65001 -0.002347 -0.146801 0.0212319)
(0 -0.000558274 7.64393 -0.00217792 -0.158302 0.0209029)
(0 -0.000607087 7.63809 -0.00197317 -0.168355 0.0205296)
(0 -0.000739505 7.63155 -0.00174117 -0.176923 0.0201181)
(1.53336e-16 -0.000935249 7.62369 -0.00148456 -0.184009 0.0196713)
(-5.34705e-17 -0.00117994 7.61415 -0.0011991 -0.189618 0.0191822)
(0 -0.00147811 7.6027 -0.000872784 -0.193738 0.0186411)
(0 -0.00186364 7.58903 -0.000488554 -0.196305 0.0180268)
(0 -0.00239058 7.57245 -4.41009e-05 -0.197218 0.0173359)
(-1.28089e-16 -0.00312266 7.55197 0.000461622 -0.196435 0.0165755)
(0 -0.00414202 7.52623 0.00103644 -0.193886 0.0157177)
(0 -0.00552621 7.49342 0.00167048 -0.189524 0.014782)
(0 -0.00733758 7.45161 0.00233992 -0.183378 0.013775)
(-1.53419e-16 -0.00961423 7.39876 0.00300558 -0.17556 0.0127394)
(-8.02492e-17 -0.0123566 7.3331 0.00361653 -0.16631 0.0117158)
(0 -0.0155283 7.2532 0.0041101 -0.155964 0.0107641)
(0 -0.0190232 7.15824 0.00441691 -0.144982 0.00995443)
(0 -0.0226628 7.0484 0.00453009 -0.133899 0.00928379)
(4.80594e-17 -0.0263944 6.92495 0.00482798 -0.123092 0.00845156)
(-5.02771e-17 -0.030686 6.78863 0.00568255 -0.111519 0.00668121)
(0 -0.0360009 6.6363 0.00684259 -0.0982171 0.00463728)
(0 -0.0424398 6.46498 0.00806354 -0.0833092 0.00242648)
(0 -0.0501759 6.2717 0.00935063 -0.0668211 6.58941e-05)
(-6.02196e-17 -0.059451 6.05308 0.0106126 -0.0488605 -0.00235009)
(0 -0.0704566 5.80536 0.0116359 -0.029762 -0.0045857)
(6.59055e-17 -0.0832046 5.52492 0.0120699 -0.0102535 -0.00625191)
(-6.89467e-17 -0.0973993 5.20917 0.0114574 0.00843583 -0.00683795)
(0 -0.112333 4.85762 0.0093375 0.0245639 -0.00580821)
(0 -0.126889 4.47303 0.00546881 0.0360581 -0.00282357)
(-3.94693e-17 -0.139762 4.06199 0.000130754 0.0410262 0.00188258)
(0 -0.149943 3.63439 -0.00548218 0.0384928 0.00719027)
(-4.31959e-17 -0.15736 3.2012 -0.0092809 0.0296281 0.0108157)
(-2.25946e-17 -0.163056 2.77064 -0.009726 0.0183202 0.0108342)
(2.36372e-17 -0.168461 2.34594 -0.00738355 0.00887302 0.00795251)
(2.4728e-17 -0.174613 1.92658 -0.00422027 0.00315897 0.00444575)
(0 -0.182235 1.51046 -0.00175749 0.000636288 0.00183314)
(0 -0.192453 1.09447 -0.000427499 -4.46373e-05 0.000446442)
(1.41558e-17 -0.208246 0.673738 5.2783e-06 -2.92964e-05 1.3225e-05)
(1.85113e-18 -0.23919 0.23919 2.66267e-05 1.78238e-05 2.67894e-05)
(0 -0.000821117 7.67798 -0.00601289 -0.00761166 -0.0174066)
(0 -0.00232389 7.66932 -0.00614822 -0.0226474 -0.0173844)
(0 -0.00345895 7.65417 -0.00638264 -0.0373951 -0.0168575)
(0 -0.00410704 7.63531 -0.00665947 -0.0519659 -0.0162206)
(0 -0.00426059 7.61548 -0.00691753 -0.0663598 -0.0155801)
(-2.72449e-16 -0.00400293 7.59686 -0.00710005 -0.0804624 -0.0150232)
(0 -0.00347394 7.58086 -0.00716613 -0.0940909 -0.0146104)
(0 -0.00283714 7.56804 -0.00709144 -0.107034 -0.0143731)
(-1.55966e-16 -0.00225218 7.55825 -0.00686842 -0.119085 -0.0143164)
(0 -0.00184946 7.55078 -0.00650426 -0.130066 -0.0144219)
(0 -0.00171261 7.54459 -0.00601696 -0.139844 -0.0146577)
(-1.78569e-16 -0.00186462 7.5386 -0.00543075 -0.148342 -0.0149826)
(-5.60427e-16 -0.00227136 7.53189 -0.00476722 -0.155528 -0.0153618)
(0 -0.0028712 7.52382 -0.00403358 -0.161405 -0.0157762)
(0 -0.00362032 7.51405 -0.00321982 -0.165981 -0.0162315)
(0 -0.00453244 7.50235 -0.00229689 -0.169257 -0.0167485)
(0 -0.00571056 7.48839 -0.001225 -0.171198 -0.0173658)
(0 -0.00731767 7.4715 2.35079e-06 -0.171749 -0.0180881)
(0 -0.00954788 7.4507 0.00138814 -0.17089 -0.0189074)
(0 -0.0126514 7.42466 0.00294573 -0.168586 -0.0198287)
(-2.67999e-16 -0.0168626 7.39161 0.00464622 -0.164829 -0.0207833)
(0 -0.0223707 7.34966 0.00642779 -0.159661 -0.0217056)
(-2.93303e-16 -0.0292907 7.29682 0.00819301 -0.153183 -0.0224694)
(-3.06838e-16 -0.0376232 7.23135 0.00982196 -0.145575 -0.0229517)
(-1.60498e-16 -0.0472606 7.15189 0.0111785 -0.137064 -0.0230138)
(0 -0.0578883 7.05761 0.0121221 -0.127934 -0.0225172)
(-3.51305e-16 -0.0689645 6.94857 0.0126562 -0.118558 -0.0214902)
(0 -0.080319 6.82591 0.0135997 -0.109314 -0.0206173)
(0 -0.0933753 6.69031 0.0157355 -0.0995495 -0.0211758)
(0 -0.109535 6.53874 0.0185314 -0.0886709 -0.0221678)
(0 -0.129084 6.36833 0.0214659 -0.0768765 -0.0233135)
(-2.20097e-16 -0.152545 6.1763 0.0245214 -0.0642083 -0.024604)
(0 -0.18066 5.9594 0.0274636 -0.0507023 -0.0258713)
(0 -0.214028 5.71397 0.0297868 -0.036501 -0.0266859)
(0 -0.252718 5.43644 0.0306922 -0.0219487 -0.0263435)
(0 -0.295891 5.12412 0.0291603 -0.00767179 -0.0239333)
(0 -0.341466 4.77618 0.0241733 0.00535216 -0.0185506)
(1.44257e-16 -0.386088 4.39477 0.0151917 0.0157572 -0.00972801)
(0 -0.425722 3.98584 0.00278614 0.0219262 0.0019199)
(0 -0.457084 3.55895 -0.0104544 0.0222778 0.0140667)
(0 -0.479729 3.12551 -0.0197897 0.0167275 0.0222065)
(0 -0.496819 2.69468 -0.0215194 0.00842193 0.0226295)
(0 -0.512827 2.27037 -0.0167064 0.00172263 0.0168297)
(0 -0.530906 1.85243 -0.00974958 -0.00148587 0.00953415)
(0 -0.552906 1.43923 -0.00417067 -0.0019849 0.00399534)
(0 -0.580938 1.02876 -0.00106829 -0.00125408 0.000980593)
(0 -0.618867 0.618867 -1.73303e-05 -0.000401986 -1.77804e-05)
(-1.41558e-17 -0.673738 0.208246 1.3216e-05 -2.93692e-05 5.28926e-06)
(-4.15684e-16 -0.00138206 7.46811 -0.009761 -0.00683046 -0.0541976)
(0 -0.00391141 7.4601 -0.00994841 -0.0202098 -0.0542685)
(0 -0.00582286 7.44608 -0.0102741 -0.0331727 -0.0537895)
(0 -0.00691665 7.42863 -0.0106547 -0.0458421 -0.0532123)
(-4.97887e-16 -0.00718021 7.41026 -0.0110004 -0.0581755 -0.0526391)
(0 -0.00675391 7.39299 -0.0112295 -0.0700926 -0.0521561)
(0 -0.0058728 7.3781 -0.0112822 -0.0814706 -0.0518286)
(2.85021e-16 -0.00481177 7.3661 -0.0111223 -0.0921682 -0.0516967)
(0 -0.00383927 7.35685 -0.0107382 -0.102045 -0.0517749)
(0 -0.00317474 7.34967 -0.0101395 -0.110982 -0.0520537)
(3.26327e-16 -0.00295923 7.3436 -0.00935183 -0.118886 -0.0525069)
(0 -0.00323226 7.33763 -0.00840997 -0.1257 -0.0530957)
(1.07141e-15 -0.00393743 7.33089 -0.00734533 -0.131402 -0.0537853)
(0 -0.00497219 7.32277 -0.00616951 -0.135998 -0.0545584)
(0 -0.00626356 7.31292 -0.00487006 -0.139501 -0.0554264)
(-4.08895e-16 -0.00783511 7.30107 -0.00340827 -0.141928 -0.056422)
(-4.27764e-16 -0.00985992 7.2869 -0.0017319 -0.143278 -0.0576002)
(4.47503e-16 -0.0126092 7.26974 0.00016907 -0.143543 -0.0589737)
(4.68153e-16 -0.0164093 7.24866 0.00229979 -0.142722 -0.0605052)
(0 -0.0216802 7.22243 0.00467086 -0.140806 -0.0622425)
(0 -0.0288124 7.18944 0.00723559 -0.137816 -0.064105)
(0 -0.0381217 7.14795 0.00990609 -0.1338 -0.0660071)
(0 -0.0497983 7.09618 0.0125475 -0.128831 -0.0677827)
(0 -0.0638404 7.03256 0.0150051 -0.123022 -0.0692625)
(0 -0.0800777 6.95588 0.0171203 -0.11648 -0.0702613)
(0 -0.0980225 6.86535 0.0187272 -0.109318 -0.0705788)
(0 -0.116812 6.76077 0.0197966 -0.101808 -0.0701605)
(0 -0.136158 6.64269 0.0213345 -0.094491 -0.0696647)
(0 -0.158393 6.51136 0.0243239 -0.086967 -0.0704567)
(0 -0.185805 6.36419 0.0280808 -0.078869 -0.0714541)
(0 -0.218846 6.1988 0.0319697 -0.0705527 -0.0723338)
(-4.20777e-16 -0.258401 6.01272 0.0359931 -0.0620607 -0.0730539)
(4.40194e-16 -0.305731 5.80303 0.0398585 -0.0532785 -0.073339)
(0 -0.361873 5.56645 0.0429379 -0.0440462 -0.0725692)
(0 -0.427039 5.29965 0.0442455 -0.0342031 -0.0697594)
(0 -0.499999 4.9999 0.0425088 -0.0236828 -0.0636251)
(0 -0.577505 4.66575 0.0363796 -0.0127193 -0.0528239)
(2.75787e-16 -0.654109 4.29799 0.0249432 -0.00218273 -0.0365206)
(0 -0.722904 3.90068 0.00840765 0.00611518 -0.015303)
(0 -0.777723 3.48175 -0.0103344 0.00908352 0.00768103)
(0 -0.816974 3.05258 -0.0245113 0.00474111 0.0249805)
(-1.65162e-16 -0.845738 2.62398 -0.0279214 -0.00350005 0.0293263)
(-1.72784e-16 -0.871867 2.20163 -0.0215114 -0.00928936 0.0223355)
(0 -0.900767 1.78666 -0.0117778 -0.0100111 0.0119931)
(0 -0.93505 1.37862 -0.00407179 -0.0073791 0.00406432)
(0 -0.97678 0.97678 -3.37673e-05 -0.00393807 -3.61285e-05)
(0 -1.02876 0.580937 0.000981798 -0.00125377 -0.0010695)
(0 -1.09447 0.192453 0.00044679 -4.44811e-05 -0.000427802)
(0 -0.0018959 6.94185 -0.0131988 -0.0057716 0.0523624)
(0 -0.0053658 6.9355 -0.013396 -0.0169981 0.052524)
(0 -0.00798832 6.9244 -0.0137538 -0.0277131 0.0522125)
(0 -0.0094907 6.91063 -0.0141676 -0.0379959 0.0518191)
(-9.51852e-16 -0.00985759 6.89617 -0.0145257 -0.047791 0.0513535)
(-4.97887e-16 -0.00928216 6.8826 -0.0147362 -0.0570599 0.0508128)
(0 -0.00808697 6.87094 -0.0147282 -0.0657499 0.0501816)
(5.44898e-16 -0.00664951 6.86157 -0.0144584 -0.0738006 0.0494355)
(-5.70042e-16 -0.00533827 6.85432 -0.0139115 -0.0811504 0.0485466)
(0 -0.00445467 6.84863 -0.0130972 -0.0877431 0.0474908)
(-6.23865e-16 -0.00419325 6.84372 -0.012044 -0.0935316 0.0462482)
(0 -0.00461048 6.83874 -0.0107919 -0.0984832 0.0448081)
(0 -0.00563304 6.83294 -0.00937825 -0.102583 0.0431592)
(0 -0.00712544 6.82579 -0.00781904 -0.105838 0.0412798)
(0 -0.00899266 6.81692 -0.00610414 -0.108267 0.0391278)
(0 -0.0112716 6.80602 -0.00419481 -0.109906 0.0366435)
(0 -0.0142023 6.79271 -0.00203897 -0.11079 0.0337458)
(0 -0.0181608 6.77636 0.000377599 -0.110956 0.0303991)
(8.95006e-16 -0.0235837 6.75609 0.00306587 -0.110432 0.0266182)
(0 -0.0310336 6.73095 0.00602329 -0.109233 0.0222812)
(4.89756e-16 -0.0410431 6.69967 0.00918708 -0.10741 0.0174037)
(5.12355e-16 -0.0540381 6.66091 0.0124612 -0.105008 0.0120054)
(0 -0.0702702 6.61333 0.0156978 -0.102065 0.00618829)
(0 -0.0897295 6.55576 0.0187452 -0.0986254 5.98573e-05)
(0 -0.112205 6.48736 0.0214789 -0.0946784 -0.00626069)
(0 -0.137139 6.4075 0.0237562 -0.0901595 -0.0126199)
(0 -0.163558 6.31564 0.0254451 -0.0851779 -0.0188614)
(-6.71619e-16 -0.191164 6.21119 0.0274601 -0.0803407 -0.0251233)
(0 -0.222879 6.09334 0.0307708 -0.0756481 -0.0320614)
(0 -0.261588 5.96069 0.0346884 -0.0711275 -0.0392779)
(-7.68951e-16 -0.307958 5.81166 0.0386552 -0.0671695 -0.046713)
(0 -0.363259 5.64433 0.0427645 -0.0637648 -0.0543453)
(0 -0.429224 5.45644 0.0467892 -0.0606007 -0.0618576)
(0 -0.507319 5.24547 0.0501975 -0.0571365 -0.0685829)
(0 -0.598018 5.00882 0.0521301 -0.0525732 -0.0734635)
(0 -0.700037 4.74394 0.0513811 -0.0459387 -0.0750191)
(0 -0.809566 4.44859 0.0464446 -0.0364489 -0.0713617)
(-2.63622e-16 -0.919792 4.12129 0.0358131 -0.0242288 -0.0604299)
(0 -1.02133 3.76211 0.0182866 -0.0112797 -0.040698)
(0 -1.10438 3.37429 -0.00443417 -0.0033004 -0.0128925)
(-3.01826e-16 -1.16451 2.96663 -0.0237459 -0.0060738 0.0139856)
(1.57877e-16 -1.20745 2.55124 -0.0295559 -0.0160452 0.0258891)
(1.65162e-16 -1.24432 2.137 -0.0217472 -0.0227731 0.0208465)
(0 -1.28305 1.72823 -0.00926506 -0.0213466 0.00922928)
(0 -1.32716 1.32716 7.00446e-05 -0.0146662 6.48899e-05)
(0 -1.37862 0.93505 0.0040679 -0.00737841 -0.0040754)
(0 -1.43923 0.552906 0.00399741 -0.00198392 -0.00417277)
(0 -1.51046 0.182235 0.0018339 0.000637032 -0.00175816)
(0 -0.00227173 6.01218 -0.0160853 -0.00434506 0.113161)
(0 -0.00642585 6.00814 -0.0162629 -0.0128418 0.113924)
(0 -0.00955817 6.00115 -0.0165874 -0.0208572 0.114134)
(0 -0.0113448 5.99257 -0.016952 -0.0283091 0.114345)
(0 -0.0117712 5.98366 -0.0172426 -0.0352027 0.114437)
(1.42778e-15 -0.0110719 5.97545 -0.0173684 -0.0415348 0.114303)
(4.97887e-16 -0.00963682 5.96853 -0.017257 -0.0473122 0.113866)
(0 -0.00792184 5.96309 -0.0168629 -0.052543 0.113081)
(0 -0.00637113 5.95897 -0.0161679 -0.0572316 0.111937)
(0 -0.00534797 5.95574 -0.0151789 -0.0613769 0.110451)
(0 -0.00508747 5.95281 -0.0139217 -0.0649708 0.108658)
(0 -0.00566192 5.9496 -0.0124351 -0.0680037 0.106605)
(0 -0.00699269 5.94554 -0.010758 -0.0704724 0.104335)
(0 -0.00893034 5.94018 -0.00891081 -0.0723886 0.101874)
(1.42855e-15 -0.0113756 5.93313 -0.0068915 -0.0737812 0.0992217)
(0 -0.0143866 5.92401 -0.00467203 -0.074701 0.096357)
(0 -0.0182616 5.91239 -0.00221426 -0.0752013 0.0932434)
(8.1779e-16 -0.023463 5.89768 0.000500837 -0.0753384 0.0898698)
(8.55527e-16 -0.0304894 5.87918 0.00349503 -0.0751701 0.086152)
(0 -0.0399822 5.85623 0.00674152 -0.0747322 0.0821846)
(9.36306e-16 -0.052574 5.82806 0.0101623 -0.0740819 0.078064)
(0 -0.068757 5.79388 0.013672 -0.0732544 0.0738562)
(-5.12355e-16 -0.0888125 5.75296 0.0171306 -0.072263 0.0697101)
(5.35998e-16 -0.112714 5.7047 0.0204193 -0.0711235 0.0657196)
(5.60732e-16 -0.140236 5.64873 0.0235009 -0.0697765 0.0618914)
(5.86607e-16 -0.17089 5.58469 0.0263464 -0.0680596 0.0581774)
(-6.13676e-16 -0.203946 5.51193 0.0287544 -0.0657857 0.0545457)
(0 -0.239393 5.42884 0.0311181 -0.0630814 0.0501954)
(0 -0.280106 5.33318 0.0339151 -0.0608435 0.0415405)
(0 -0.328982 5.22539 0.0367956 -0.0601458 0.0325853)
(7.35032e-16 -0.387066 5.10487 0.0396464 -0.0609186 0.0232893)
(0 -0.455996 4.97048 0.0426237 -0.0630465 0.013749)
(-4.02217e-16 -0.537822 4.82098 0.0456871 -0.0661164 0.00421705)
(-8.41554e-16 -0.634328 4.65509 0.04869 -0.0693708 -0.00501802)
(8.80388e-16 -0.746365 4.47139 0.0513639 -0.0715628 -0.0137069)
(0 -0.87313 4.26806 0.0531553 -0.0709232 -0.0215967)
(0 -1.01134 4.04244 0.0529217 -0.0654226 -0.0281536)
(0 -1.15453 3.7908 0.0486443 -0.0535182 -0.0320034)
(0 -1.29264 3.50845 0.0362928 -0.0355787 -0.0300665)
(0 -1.41251 3.19097 0.0133211 -0.0190541 -0.0171431)
(0 -1.50411 2.83889 -0.0115114 -0.0158759 0.00380321)
(3.01826e-16 -1.57037 2.46159 -0.0224377 -0.0256048 0.0152159)
(-1.57877e-16 -1.62391 2.0705 -0.0154511 -0.0339018 0.010327)
(-1.65162e-16 -1.67494 1.67493 -0.00107078 -0.0315946 -0.00107909)
(0 -1.72824 1.28305 0.00923593 -0.0213456 -0.00927172)
(0 -1.78666 0.900766 0.011998 -0.0100094 -0.0117827)
(4.72745e-17 -1.85243 0.530905 0.00953708 -0.00148392 -0.00975257)
(0 -1.92658 0.174612 0.0044469 0.00316071 -0.00422131)
(0 -0.00248617 4.91898 -0.0181889 -0.00281603 -0.00837109)
(0 -0.00702368 4.91684 -0.0183424 -0.00836285 -0.00793771)
(-1.58939e-15 -0.0104284 4.91326 -0.0185946 -0.0135468 -0.00710249)
(0 -0.0123508 4.90899 -0.0188576 -0.0182197 -0.00614801)
(-8.69732e-16 -0.0127808 4.90474 -0.0190365 -0.0224191 -0.00529252)
(0 -0.0119827 4.90102 -0.019043 -0.0261517 -0.00471689)
(9.51852e-16 -0.010391 4.89812 -0.0188095 -0.0294403 -0.00454617)
(0 -0.00851241 4.89603 -0.0182914 -0.0323115 -0.00484143)
(0 -0.00683857 4.89458 -0.017469 -0.0347881 -0.00560739)
(-1.0898e-15 -0.00577097 4.89344 -0.0163446 -0.0368849 -0.0068014)
(-1.71013e-15 -0.00557013 4.8922 -0.0149395 -0.0386079 -0.00834969)
(0 -0.00632263 4.89043 -0.0132893 -0.0399605 -0.0101578)
(-1.8716e-15 -0.0079576 4.88771 -0.011433 -0.0409527 -0.012133)
(6.52653e-16 -0.0103335 4.88364 -0.00939598 -0.0416077 -0.0141997)
(-6.8277e-16 -0.0133666 4.8778 -0.0071856 -0.0419623 -0.0163149)
(-7.14276e-16 -0.0171435 4.86973 -0.00478473 -0.0420678 -0.0184566)
(0 -0.0220046 4.85896 -0.00216579 -0.0419619 -0.0206237)
(0 -0.0284583 4.84497 0.000687292 -0.0416782 -0.0227934)
(0 -0.0370264 4.82728 0.00379776 -0.0412637 -0.0250216)
(0 -0.0483726 4.80544 0.00712538 -0.0407201 -0.0271388)
(0 -0.0631616 4.77908 0.0105849 -0.0400602 -0.0289746)
(0 -0.0818983 4.7479 0.0140998 -0.0392703 -0.0304138)
(9.79511e-16 -0.104859 4.71169 0.0175367 -0.0383198 -0.0312438)
(0 -0.132 4.67033 0.0208024 -0.0372172 -0.0313433)
(0 -0.163097 4.62381 0.0239489 -0.0359374 -0.030757)
(0 -0.197805 4.57202 0.027201 -0.0344035 -0.0297028)
(-5.86607e-16 -0.235858 4.51444 0.0306903 -0.0326641 -0.0283844)
(-6.13676e-16 -0.277934 4.44969 0.0336605 -0.0315127 -0.0263715)
(6.41994e-16 -0.326181 4.37615 0.0349598 -0.0311996 -0.0228446)
(0 -0.38284 4.29436 0.0354077 -0.0316908 -0.0189408)
(0 -0.449563 4.20444 0.0360538 -0.0336134 -0.0149683)
(0 -0.528211 4.10617 0.0366987 -0.0367539 -0.0110131)
(0 -0.620894 3.99943 0.0374352 -0.0407147 -0.00738981)
(0 -0.729513 3.88424 0.0385868 -0.044897 -0.0047081)
(0 -0.855303 3.76046 0.0406963 -0.0484316 -0.00377644)
(0 -0.99831 3.62721 0.0443078 -0.0501565 -0.00530846)
(4.60507e-16 -1.15674 3.48214 0.0495003 -0.0486789 -0.00939884)
(0 -1.32626 3.32071 0.0552289 -0.0424009 -0.0148534)
(0 -1.49921 3.13577 0.0553699 -0.0292617 -0.0183661)
(0 -1.66275 2.91731 0.0409097 -0.0143145 -0.0127923)
(0 -1.8011 2.6536 0.015696 -0.0119632 0.00112108)
(2.88513e-16 -1.90929 2.34373 -0.00215899 -0.0247462 0.00803533)
(0 -1.9962 1.9962 -0.00186552 -0.035619 -0.0018765)
(0 -2.0705 1.62391 0.0103368 -0.0339006 -0.0154608)
(-1.65162e-16 -2.137 1.24432 0.0208545 -0.0227709 -0.0217552)
(-8.63919e-17 -2.20163 0.871866 0.0223414 -0.00928645 -0.0215174)
(-9.03784e-17 -2.27037 0.512827 0.0168334 0.00172588 -0.0167102)
(2.36372e-17 -2.34594 0.168461 0.00795402 0.00887617 -0.00738491)
(0 -0.00259869 3.96204 -0.0195181 -0.0016213 -0.0413646)
(0 -0.007324 3.96104 -0.0196377 -0.00474447 -0.0417521)
(0 -0.0108418 3.95952 -0.019813 -0.00757961 -0.041607)
(7.94697e-16 -0.0127987 3.95785 -0.0199731 -0.010077 -0.0414685)
(0 -0.0131898 3.95639 -0.0200389 -0.0122276 -0.0413888)
(-8.69732e-16 -0.012303 3.95535 -0.0199274 -0.0140363 -0.0414194)
(0 -0.0106051 3.95479 -0.0195763 -0.0155217 -0.0416066)
(-9.51852e-16 -0.00863652 3.95462 -0.0189429 -0.0167057 -0.0419907)
(-9.95775e-16 -0.00691967 3.95464 -0.018006 -0.0176067 -0.0426012)
(1.04172e-15 -0.00588006 3.95455 -0.0167652 -0.0182376 -0.0434526)
(-1.0898e-15 -0.00579583 3.95404 -0.015239 -0.018606 -0.0445454)
(0 -0.0067696 3.95279 -0.0134619 -0.01872 -0.0458623)
(-1.19269e-15 -0.00874964 3.95042 -0.0114743 -0.0185963 -0.0473807)
(0 -0.0116191 3.94653 -0.00930507 -0.0182636 -0.0490851)
(1.95796e-15 -0.0153234 3.94068 -0.00696647 -0.0177578 -0.0509799)
(0 -0.0199798 3.93236 -0.00444228 -0.017121 -0.0530918)
(-7.14276e-16 -0.0259517 3.92108 -0.00169889 -0.0163618 -0.0554766)
(0 -0.0337525 3.90643 0.00126747 -0.0154683 -0.0581391)
(0 -0.0439159 3.88808 0.00447099 -0.0144781 -0.0610502)
(0 -0.0571018 3.86574 0.00789053 -0.0133553 -0.0642862)
(0 -0.0739471 3.83932 0.011456 -0.0120452 -0.0677792)
(-8.95006e-16 -0.0949328 3.80882 0.0151014 -0.0104695 -0.0715072)
(0 -0.120313 3.77438 0.0187013 -0.00853456 -0.0753366)
(0 -0.150031 3.73617 0.0221675 -0.00623004 -0.0791868)
(0 -0.18389 3.69433 0.0255665 -0.00357718 -0.083096)
(0 -0.221678 3.64887 0.0292138 -0.000661948 -0.0872671)
(1.12146e-15 -0.263359 3.59942 0.0334445 0.0023235 -0.0918805)
(-5.86607e-16 -0.309634 3.54528 0.0363803 0.00511867 -0.0948842)
(0 -0.362589 3.48646 0.0362668 0.00727056 -0.0885467)
(6.41994e-16 -0.424322 3.42318 0.0351653 0.00942664 -0.0817744)
(0 -0.49634 3.35613 0.0345431 0.0115486 -0.0752529)
(7.0261e-16 -0.580481 3.286 0.0340112 0.0137212 -0.0691203)
(0 -0.678725 3.21368 0.0337171 0.0160906 -0.0637815)
(7.68951e-16 -0.792967 3.14011 0.0340869 0.0188108 -0.0598225)
(0 -0.92479 3.06586 0.0356556 0.0220321 -0.0577442)
(0 -1.07519 2.99052 0.0387687 0.0259236 -0.0576068)
(0 -1.24413 2.91188 0.0433713 0.0306516 -0.0586813)
(0 -1.42984 2.82519 0.0497691 0.0363645 -0.0592319)
(0 -1.62833 2.7229 0.0535036 0.0445561 -0.0561962)
(0 -1.83273 2.59544 0.0456439 0.0496688 -0.0402778)
(-5.27244e-16 -2.02757 2.42667 0.0270251 0.030538 -0.00468902)
(0 -2.19846 2.19846 0.0114811 -0.00224719 0.0114692)
(2.88513e-16 -2.34373 1.90929 0.00804694 -0.0247452 -0.00217074)
(3.01826e-16 -2.46159 1.57036 0.0152266 -0.0256025 -0.0224484)
(0 -2.55124 1.20745 0.0258982 -0.0160417 -0.029565)
(-1.65162e-16 -2.62398 0.845737 0.0293332 -0.00349571 -0.0279283)
(-8.63919e-17 -2.69468 0.496818 0.0226338 0.00842677 -0.0215239)
(0 -2.77064 0.163056 0.010836 0.0183251 -0.00972764)
(0 -0.00264546 3.22639 -0.0202553 -0.000781334 0.0245479)
(0 -0.00743599 3.22616 -0.0203269 -0.00220774 0.0243874)
(-7.26136e-16 -0.0109712 3.22594 -0.0204305 -0.00340936 0.0243245)
(7.59644e-16 -0.0129057 3.22588 -0.0205004 -0.00440274 0.0242018)
(0 -0.0132421 3.22607 -0.0204606 -0.00514614 0.0239851)
(0 -0.0122877 3.2265 -0.0202385 -0.00564043 0.0236362)
(0 -0.0105327 3.22711 -0.0197769 -0.0058989 0.0231189)
(9.09866e-16 -0.00854051 3.22772 -0.0190348 -0.00593855 0.0223972)
(-9.51852e-16 -0.00685307 3.22813 -0.0179908 -0.00577384 0.0214428)
(9.95775e-16 -0.00591177 3.2281 -0.0166431 -0.00541632 0.0202387)
(0 -0.00600913 3.22737 -0.0150088 -0.00487313 0.0187804)
(0 -0.00726653 3.22567 -0.0131216 -0.00415177 0.0170805)
(0 -0.00965931 3.22268 -0.0110222 -0.00326748 0.0151571)
(0 -0.0131048 3.21802 -0.00873998 -0.00224527 0.0130219)
(0 -0.0175831 3.21123 -0.00628846 -0.00111402 0.0106687)
(0 -0.0232371 3.20183 -0.00364698 9.15691e-05 0.00806665)
(-1.36554e-15 -0.0304367 3.18939 -0.000771163 0.00137917 0.00515059)
(0 -0.0396782 3.17357 0.00233125 0.00278055 0.00191446)
(1.49447e-15 -0.0514881 3.1542 0.00567073 0.00426402 -0.00162678)
(0 -0.0664965 3.13117 0.00925494 0.00588742 -0.00555909)
(2.45337e-15 -0.0852821 3.10461 0.013037 0.00772675 -0.00982576)
(8.55527e-16 -0.108282 3.07478 0.0169701 0.00988412 -0.014433)
(-8.95006e-16 -0.135726 3.04203 0.0209356 0.0124781 -0.0192559)
(0 -0.167566 3.00668 0.0248289 0.0155074 -0.0242104)
(9.79511e-16 -0.203658 2.96895 0.028643 0.0189022 -0.0292861)
(0 -0.243927 2.92887 0.0324474 0.0224643 -0.0345387)
(0 -0.288515 2.8862 0.0363036 0.0258974 -0.0400312)
(0 -0.337981 2.84042 0.0390979 0.0295099 -0.0455445)
(1.17321e-15 -0.39405 2.79157 0.0402921 0.0336401 -0.0501846)
(6.13676e-16 -0.458576 2.74112 0.0411314 0.0386162 -0.0549257)
(0 -0.532889 2.69032 0.0421893 0.0447387 -0.0598573)
(-6.71619e-16 -0.618653 2.64045 0.0433282 0.0518618 -0.0646778)
(1.40522e-15 -0.717699 2.59283 0.0444683 0.0597621 -0.0690352)
(-7.35032e-16 -0.83201 2.5486 0.0454964 0.0681077 -0.0725321)
(0 -0.963709 2.50837 0.0461728 0.0764803 -0.0747084)
(-8.04434e-16 -1.115 2.47166 0.045997 0.0845183 -0.075081)
(0 -1.28785 2.43626 0.0442168 0.0920677 -0.0732708)
(0 -1.4832 2.3975 0.0419214 0.0992934 -0.0690989)
(0 -1.69906 2.34788 0.0372386 0.109266 -0.062457)
(4.81757e-16 -1.9327 2.27862 0.0122521 0.124772 -0.0521717)
(0 -2.18019 2.18019 -0.00910023 0.0971596 -0.00911132)
(0 -2.42667 2.02757 -0.00467729 0.0305382 0.0270135)
(0 -2.6536 1.8011 0.00113298 -0.0119616 0.0156837)
(2.88513e-16 -2.83889 1.50411 0.00381459 -0.0158726 -0.0115229)
(0 -2.96663 1.16451 0.0139955 -0.00606908 -0.0237557)
(0 -3.05258 0.816974 0.0249882 0.00474699 -0.024519)
(8.25812e-17 -3.12551 0.479729 0.0222114 0.0167341 -0.0197948)
(0 -3.2012 0.15736 0.0108177 0.0296352 -0.00928276)
(0 -0.00263564 2.66407 -0.0205412 -0.000136194 0.0345157)
(1.32698e-15 -0.0073967 2.66441 -0.0205705 -0.000339419 0.0347015)
(0 -0.0108864 2.66508 -0.0206084 -0.000414835 0.0347758)
(0 -0.0127693 2.66607 -0.0205947 -0.000357485 0.0347996)
(0 -0.0130607 2.66726 -0.020456 -0.000138467 0.0346857)
(0 -0.0120824 2.66849 -0.0201288 0.000248783 0.034357)
(0 -0.010339 2.66959 -0.0195608 0.000801115 0.0337538)
(-8.69732e-16 -0.00840602 2.67033 -0.0187134 0.00151125 0.0328358)
(-9.09866e-16 -0.00683506 2.67051 -0.0175658 0.00237313 0.031585)
(9.51852e-16 -0.00607638 2.66994 -0.0161156 0.00338136 0.0300063)
(2.98732e-15 -0.00643434 2.66843 -0.0143783 0.00453416 0.0281221)
(0 -0.00805051 2.66574 -0.0123856 0.00582984 0.0259741)
(1.0898e-15 -0.010931 2.66161 -0.0101767 0.00725914 0.0236085)
(-1.14008e-15 -0.0150307 2.65568 -0.00777903 0.00880356 0.0210629)
(0 -0.0203625 2.64755 -0.00520603 0.0104407 0.018354)
(0 -0.0270864 2.63678 -0.00243311 0.0121378 0.0154719)
(0 -0.0355646 2.62303 0.000591319 0.0139088 0.0123666)
(0 -0.0462646 2.60608 0.00385171 0.0157849 0.0090542)
(1.42855e-15 -0.0596764 2.58589 0.00736297 0.017742 0.00553167)
(-1.49447e-15 -0.0763708 2.56255 0.0111504 0.0198567 0.00176549)
(0 -0.0968553 2.53638 0.0151807 0.0221878 -0.00215338)
(-8.1779e-16 -0.121515 2.50783 0.019427 0.0248316 -0.0062356)
(8.55527e-16 -0.150561 2.47741 0.0237681 0.0279036 -0.0103217)
(-1.79001e-15 -0.183975 2.44553 0.0280698 0.0313661 -0.0142929)
(-9.36306e-16 -0.221681 2.4125 0.0322497 0.0351224 -0.0180766)
(0 -0.263712 2.37839 0.0361647 0.0389993 -0.0215778)
(1.02471e-15 -0.310356 2.34317 0.0396985 0.0427415 -0.0246648)
(1.072e-15 -0.362223 2.3067 0.0430206 0.046204 -0.0277461)
(0 -0.420285 2.26903 0.0464218 0.0502109 -0.0332398)
(0 -0.48581 2.23179 0.0497179 0.0550872 -0.0385141)
(0 -0.560232 2.1962 0.0526526 0.0606233 -0.0433847)
(-1.28399e-15 -0.645145 2.16344 0.0551148 0.0665433 -0.047553)
(0 -0.742378 2.13452 0.0567154 0.072513 -0.0505311)
(0 -0.85411 2.11017 0.0568764 0.0782057 -0.0517054)
(0 -0.982985 2.09064 0.0549276 0.0834125 -0.0504206)
(0 -1.1322 2.07547 0.0501779 0.0882144 -0.0461225)
(0 -1.30551 2.06309 0.0418911 0.0930837 -0.0385504)
(0 -1.50657 2.04991 0.0310524 0.0986732 -0.0279852)
(0 -1.73661 2.02923 0.0261488 0.105873 -0.0156516)
(0 -1.99275 1.99275 -0.00628411 0.127666 -0.00629479)
(0 -2.27862 1.9327 -0.0521607 0.124772 0.0122411)
(0 -2.59544 1.83273 -0.0402656 0.0496688 0.0456323)
(0 -2.91731 1.66275 -0.0127799 -0.0143127 0.0408972)
(0 -3.19097 1.41251 -0.0171313 -0.01905 0.0133089)
(-5.77026e-16 -3.37429 1.10438 -0.0128818 -0.00329439 -0.00444477)
(0 -3.48175 0.777723 0.00768949 0.00909106 -0.0103428)
(0 -3.55895 0.457084 0.0140721 0.0222866 -0.0104599)
(0 -3.63439 0.149943 0.00719252 0.0385024 -0.00548426)
(0 -0.00258566 2.22728 -0.020462 0.000340957 0.0212648)
(1.26845e-15 -0.00725013 2.22796 -0.0204603 0.00103582 0.0213295)
(1.32698e-15 -0.0106533 2.22919 -0.0204406 0.00177851 0.0213097)
(0 -0.0124726 2.2308 -0.02035 0.00259255 0.0212178)
(0 -0.0127391 2.23253 -0.0201207 0.00349556 0.0209841)
(0 -0.0117846 2.23412 -0.0196944 0.00450148 0.0205479)
(0 -0.0101204 2.2353 -0.0190235 0.00561737 0.0198597)
(-2.49411e-15 -0.00832584 2.23584 -0.0180718 0.00684604 0.0188837)
(-1.73946e-15 -0.00695453 2.23555 -0.0168196 0.00819082 0.0176008)
(0 -0.00646084 2.23425 -0.0152645 0.00965439 0.0160104)
(-9.51852e-16 -0.00715926 2.23179 -0.0134199 0.0112426 0.0141271)
(0 -0.00921184 2.22799 -0.011315 0.0129612 0.0119828)
(0 -0.0126563 2.22261 -0.00898595 0.014807 0.00961406)
(0 -0.0174842 2.21534 -0.00645724 0.0167661 0.00704929)
(0 -0.0237361 2.20583 -0.00374283 0.0188179 0.00429863)
(0 -0.0315784 2.19372 -0.000815128 0.0209246 0.00134425)
(-1.24773e-15 -0.0413532 2.17877 0.00238303 0.0231024 -0.00187854)
(-1.30531e-15 -0.0534868 2.16088 0.00582724 0.0253835 -0.00534732)
(0 -0.0684106 2.14013 0.00953774 0.0277275 -0.00906058)
(1.42855e-15 -0.0866158 2.11678 0.0135489 0.0302113 -0.0130974)
(1.49447e-15 -0.108528 2.09129 0.0178325 0.0328686 -0.0173695)
(0 -0.134475 2.06427 0.0223824 0.0357822 -0.0219369)
(0 -0.164657 2.03633 0.027069 0.0390656 -0.0266231)
(8.55527e-16 -0.199088 2.008 0.0317304 0.0426526 -0.0312845)
(8.95006e-16 -0.237756 1.9796 0.036247 0.0464446 -0.0357987)
(-9.36306e-16 -0.280744 1.95134 0.0404281 0.0503194 -0.0399885)
(0 -0.328325 1.92334 0.0441891 0.0541911 -0.0436937)
(0 -0.381019 1.89587 0.0479117 0.0580758 -0.0469516)
(0 -0.439493 1.86932 0.0518555 0.0616896 -0.0498339)
(0 -0.50475 1.84442 0.0554838 0.0647363 -0.0520502)
(0 -0.578172 1.82192 0.0582431 0.0673161 -0.053443)
(0 -0.661359 1.80253 0.0598039 0.0693203 -0.0537422)
(0 -0.756231 1.78676 0.059646 0.0706333 -0.052524)
(0 -0.865151 1.77489 0.0571506 0.0712965 -0.0492667)
(0 -0.991068 1.76689 0.0517614 0.0716328 -0.0434541)
(0 -1.13768 1.76231 0.0431023 0.0723523 -0.0347189)
(7.68951e-16 -1.3099 1.7603 0.0307903 0.0745079 -0.0229577)
(0 -1.51393 1.75903 0.0159032 0.0791932 -0.0084627)
(8.41554e-16 -1.75357 1.75358 0.00792335 0.0882436 0.00791341)
(0 -2.02923 1.73662 -0.0156413 0.105874 0.0261382)
(0 -2.34788 1.69906 -0.0624461 0.109266 0.0372275)
(0 -2.7229 1.62833 -0.0561838 0.0445563 0.0534918)
(0 -3.13578 1.49921 -0.0183534 -0.0292596 0.0553573)
(-5.27244e-16 -3.50846 1.29264 -0.0300545 -0.0355737 0.0362803)
(-2.75787e-16 -3.76211 1.02133 -0.0406867 -0.0112722 0.0182755)
(0 -3.90068 0.722905 -0.015294 0.00612455 0.00839872)
(0 -3.98584 0.425722 0.00192572 0.0219372 0.00278017)
(-3.94693e-17 -4.06199 0.139762 0.00188504 0.0410388 0.000128487)
(0 -0.00250999 1.8876 -0.0200898 0.00068272 0.0194752)
(0 -0.00703258 1.88848 -0.0200625 0.00203744 0.0194404)
(0 -0.0103227 1.89003 -0.019993 0.00338697 0.0193695)
(0 -0.0120779 1.89197 -0.0198337 0.00474864 0.019209)
(0 -0.0123442 1.89393 -0.019521 0.0061421 0.0188954)
(0 -0.0114596 1.89559 -0.0190004 0.00758794 0.0183755)
(0 -0.00993657 1.89662 -0.0182281 0.00910217 0.0176052)
(0 -0.0083519 1.89679 -0.0171703 0.0106969 0.0165514)
(-1.66274e-15 -0.00725618 1.8959 -0.0158088 0.0123846 0.0151955)
(8.69732e-16 -0.00710468 1.8938 -0.0141409 0.0141766 0.0135351)
(1.81973e-15 -0.00822065 1.89037 -0.0121776 0.0160873 0.0115801)
(0 -0.0107861 1.88546 -0.00994516 0.0181304 0.00935766)
(-9.95775e-16 -0.0148688 1.87885 -0.00747624 0.020308 0.00689847)
(0 -0.0204931 1.8703 -0.00479251 0.0226092 0.00422659)
(0 -0.0277192 1.85951 -0.00191055 0.0250112 0.00135228)
(0 -0.0367097 1.84621 0.00119861 0.0274637 -0.00174221)
(0 -0.0477744 1.83027 0.00459647 0.0299821 -0.00513028)
(-1.24773e-15 -0.0612864 1.81171 0.00824322 0.0325956 -0.00877515)