/*--------------------------------*- C++ -*----------------------------------*\
| =========                 |                                                 |
| \\      /  F ield         | OpenFOAM: The Open Source CFD Toolbox           |
|  \\    /   O peration     | Version:  2412                                  |
|   \\  /    A nd           | Website:  www.openfoam.com                      |
|    \\/     M anipulation  |                                                 |
\*---------------------------------------------------------------------------*/
FoamFile
{
    version     2.0;
    format      ascii;
    arch        "LSB;label=32;scalar=64";
    class       volSymmTensorField;
    location    "2130";
    object      Tij10;
}
// * * * * * * * * * * * * * * * * * * * * * * * * * * * * * * * * * * * * * //

dimensions      [0 0 0 0 0 0 0];

internalField   nonuniform List<symmTensor> 
2304
(
(-2.63599e-15 -8.04211e-18 3.12577e-13 2.01326e-20 -3.33083e-16 -2.30302e-20)
(-2.63982e-15 -2.21896e-17 3.10821e-13 1.67696e-19 -9.87778e-16 -1.93493e-19)
(-2.62222e-15 -3.13269e-17 3.07767e-13 4.03433e-19 -1.62337e-15 -4.73921e-19)
(-2.59936e-15 -3.3898e-17 3.04005e-13 6.42115e-19 -2.24415e-15 -7.78719e-19)
(-2.57266e-15 -3.00528e-17 3.00094e-13 8.03126e-19 -2.85073e-15 -1.02662e-18)
(-2.54299e-15 -2.11691e-17 2.96471e-13 8.33879e-19 -3.44074e-15 -1.16316e-18)
(-2.51078e-15 -9.28042e-18 2.934e-13 7.22544e-19 -4.00954e-15 -1.17298e-18)
(-2.4761e-15 3.39828e-18 2.90977e-13 4.99395e-19 -4.55094e-15 -1.08124e-18)
(-2.43861e-15 1.47973e-17 2.89158e-13 2.28409e-19 -5.05761e-15 -9.4565e-19)
(-2.3979e-15 2.32734e-17 2.87795e-13 -1.03406e-20 -5.52183e-15 -8.39624e-19)
(-2.35343e-15 2.77922e-17 2.86688e-13 -1.41918e-19 -5.9362e-15 -8.31767e-19)
(-2.30492e-15 2.80931e-17 2.85627e-13 -1.18807e-19 -6.29456e-15 -9.64352e-19)
(-2.25202e-15 2.4637e-17 2.84436e-13 6.77998e-20 -6.59288e-15 -1.24224e-18)
(-2.19433e-15 1.82354e-17 2.82998e-13 3.97736e-19 -6.82921e-15 -1.64259e-18)
(-2.13081e-15 9.46772e-18 2.81253e-13 8.49443e-19 -7.00261e-15 -2.14164e-18)
(-2.06035e-15 -1.78396e-18 2.79162e-13 1.42816e-18 -7.11205e-15 -2.74295e-18)
(-1.98079e-15 -1.67202e-17 2.76672e-13 2.18934e-18 -7.15462e-15 -3.49979e-18)
(-1.89177e-15 -3.71417e-17 2.73668e-13 3.21638e-18 -7.12516e-15 -4.49474e-18)
(-1.79397e-15 -6.49912e-17 2.69987e-13 4.59256e-18 -7.02001e-15 -5.81277e-18)
(-1.68433e-15 -1.02695e-16 2.65409e-13 6.40562e-18 -6.83428e-15 -7.54182e-18)
(-1.5648e-15 -1.51939e-16 2.59663e-13 8.68154e-18 -6.56392e-15 -9.71242e-18)
(-1.43612e-15 -2.13299e-16 2.52482e-13 1.13602e-17 -6.20945e-15 -1.22696e-17)
(-1.30292e-15 -2.85696e-16 2.43635e-13 1.42805e-17 -5.77673e-15 -1.50604e-17)
(-1.16965e-15 -3.66097e-16 2.32992e-13 1.71918e-17 -5.27948e-15 -1.78424e-17)
(-1.04245e-15 -4.49779e-16 2.2055e-13 1.98048e-17 -4.73771e-15 -2.03343e-17)
(-9.27733e-16 -5.29921e-16 2.06467e-13 2.18218e-17 -4.17707e-15 -2.22447e-17)
(-8.24869e-16 -5.98754e-16 1.91087e-13 2.30168e-17 -3.62538e-15 -2.33497e-17)
(-7.11359e-16 -6.54066e-16 1.74915e-13 2.34304e-17 -3.10298e-15 -2.36854e-17)
(-5.37995e-16 -7.06963e-16 1.5835e-13 2.33051e-17 -2.5938e-15 -2.3479e-17)
(-3.64391e-16 -7.61443e-16 1.41353e-13 2.25374e-17 -2.08448e-15 -2.26435e-17)
(-2.02606e-16 -8.1151e-16 1.24016e-13 2.08509e-17 -1.59061e-15 -2.09064e-17)
(-5.79021e-17 -8.51801e-16 1.06547e-13 1.80438e-17 -1.12802e-15 -1.80662e-17)
(6.14074e-17 -8.76819e-16 8.92244e-14 1.40261e-17 -7.13772e-16 -1.40313e-17)
(1.4445e-16 -8.79449e-16 7.24031e-14 8.88925e-18 -3.66014e-16 -8.88908e-18)
(1.82305e-16 -8.5169e-16 5.65318e-14 3.0598e-18 -1.01545e-16 -3.05961e-18)
(1.73413e-16 -7.87486e-16 4.21321e-14 -2.59951e-18 6.95026e-17 2.59973e-18)
(1.27301e-16 -6.86672e-16 2.97216e-14 -6.92035e-18 1.49619e-16 6.92197e-18)
(6.41831e-17 -5.58026e-16 1.96893e-14 -8.89922e-18 1.56801e-16 8.9012e-18)
(8.44034e-18 -4.18641e-16 1.21696e-14 -8.3194e-18 1.20765e-16 8.31935e-18)
(-2.30497e-17 -2.88445e-16 6.98563e-15 -5.99774e-18 7.25339e-17 5.99571e-18)
(-2.73188e-17 -1.82552e-16 3.70859e-15 -3.34022e-18 3.38699e-17 3.33853e-18)
(-1.68326e-17 -1.06326e-16 1.80477e-15 -1.42224e-18 1.2035e-17 1.4217e-18)
(-6.65697e-18 -5.66149e-17 7.8803e-16 -4.53433e-19 3.14016e-18 4.53358e-19)
(-1.75573e-18 -2.68451e-17 2.96157e-16 -1.01794e-19 5.56922e-19 1.0179e-19)
(-2.87638e-19 -1.07177e-17 8.88317e-17 -1.34035e-20 5.47383e-20 1.34034e-20)
(-2.18681e-20 -3.22157e-18 1.83209e-17 -4.479e-22 1.23421e-21 4.47899e-22)
(-2.36678e-22 -5.65289e-19 1.82888e-18 4.66599e-23 -6.82684e-23 -4.66599e-23)
(-3.83046e-24 -3.43757e-20 3.43757e-20 -5.63371e-27 -1.50942e-33 5.63371e-27)
(1.45224e-11 -2.42793e-13 2.13547e-09 4.67732e-16 -2.11989e-12 -4.5178e-16)
(1.44292e-11 -6.86102e-13 2.12355e-09 3.92917e-15 -6.27559e-12 -3.78829e-15)
(1.38656e-11 -1.01804e-12 2.10283e-09 9.62023e-15 -1.02776e-11 -9.24694e-15)
(1.31929e-11 -1.20718e-12 2.07727e-09 1.58251e-14 -1.41417e-11 -1.5129e-14)
(1.25256e-11 -1.25645e-12 2.0507e-09 2.09479e-14 -1.78712e-11 -1.98537e-14)
(1.19512e-11 -1.19414e-12 2.02606e-09 2.39532e-14 -2.14575e-11 -2.23977e-14)
(1.15238e-11 -1.06186e-12 2.00515e-09 2.45779e-14 -2.4881e-11 -2.2508e-14)
(1.12656e-11 -9.04768e-13 1.98863e-09 2.33302e-14 -2.81135e-11 -2.07016e-14)
(1.1172e-11 -7.64784e-13 1.9762e-09 2.13157e-14 -3.1119e-11 -1.80948e-14)
(1.1218e-11 -6.74862e-13 1.96687e-09 1.99099e-14 -3.38573e-11 -1.60779e-14)
(1.13672e-11 -6.55287e-13 1.95928e-09 2.03742e-14 -3.62884e-11 -1.59318e-14)
(1.15781e-11 -7.10443e-13 1.95199e-09 2.34601e-14 -3.83773e-11 -1.84322e-14)
(1.1817e-11 -8.29969e-13 1.94381e-09 2.92149e-14 -4.01002e-11 -2.36499e-14)
(1.20659e-11 -9.96596e-13 1.93394e-09 3.71731e-14 -4.14447e-11 -3.11388e-14)
(1.23273e-11 -1.198e-12 1.92197e-09 4.68637e-14 -4.24057e-11 -4.04391e-14)
(1.26142e-11 -1.43667e-12 1.90764e-09 5.83335e-14 -4.29792e-11 -5.16044e-14)
(1.2949e-11 -1.73732e-12 1.8906e-09 7.25638e-14 -4.31539e-11 -6.56179e-14)
(1.33225e-11 -2.13727e-12 1.87009e-09 9.10642e-14 -4.29086e-11 -8.40017e-14)
(1.37109e-11 -2.67771e-12 1.84469e-09 1.15384e-13 -4.2218e-11 -1.08321e-13)
(1.40985e-11 -3.40895e-12 1.8132e-09 1.47183e-13 -4.1066e-11 -1.40242e-13)
(1.44127e-11 -4.36706e-12 1.7738e-09 1.87069e-13 -3.94383e-11 -1.80399e-13)
(1.45881e-11 -5.56547e-12 1.7247e-09 2.34166e-13 -3.73425e-11 -2.2792e-13)
(1.45256e-11 -6.9848e-12 1.66434e-09 2.8586e-13 -3.4814e-11 -2.80192e-13)
(1.41489e-11 -8.56575e-12 1.59183e-09 3.37912e-13 -3.19262e-11 -3.3295e-13)
(1.3397e-11 -1.02153e-11 1.50715e-09 3.85283e-13 -2.87813e-11 -3.81112e-13)
(1.22425e-11 -1.17971e-11 1.41131e-09 4.22357e-13 -2.5501e-11 -4.1901e-13)
(1.07887e-11 -1.31507e-11 1.30652e-09 4.44011e-13 -2.2209e-11 -4.41449e-13)
(9.48095e-12 -1.4226e-11 1.19619e-09 4.49699e-13 -1.90045e-11 -4.47789e-13)
(8.92936e-12 -1.52487e-11 1.08317e-09 4.45725e-13 -1.5896e-11 -4.44249e-13)
(8.51085e-12 -1.6314e-11 9.67106e-10 4.32998e-13 -1.28753e-11 -4.31894e-13)
(8.06624e-12 -1.72981e-11 8.48706e-10 4.06712e-13 -1.00008e-11 -4.05929e-13)
(7.58259e-12 -1.8093e-11 7.29462e-10 3.63814e-13 -7.34505e-12 -3.633e-13)
(7.0001e-12 -1.85882e-11 6.11277e-10 3.03266e-13 -4.98956e-12 -3.02966e-13)
(6.22404e-12 -1.86369e-11 4.96543e-10 2.26527e-13 -3.01651e-12 -2.26385e-13)
(5.18131e-12 -1.80683e-11 3.88253e-10 1.39347e-13 -1.49474e-12 -1.39301e-13)
(3.88197e-12 -1.67451e-11 2.89879e-10 5.29406e-14 -4.5679e-13 -5.29351e-14)
(2.45736e-12 -1.46466e-11 2.04887e-10 -1.77732e-14 1.23671e-13 1.77738e-14)
(1.13997e-12 -1.19399e-11 1.35943e-10 -5.99487e-14 3.386e-13 5.99523e-14)
(1.709e-13 -8.97777e-12 8.40611e-11 -7.01144e-14 3.24493e-13 7.01141e-14)
(-3.26112e-13 -6.1823e-12 4.81248e-11 -5.66967e-14 2.17058e-13 5.66905e-14)
(-3.9657e-13 -3.91097e-12 2.54687e-11 -3.5033e-14 1.11407e-13 3.5027e-14)
(-2.50675e-13 -2.28518e-12 1.23893e-11 -1.70725e-14 4.47157e-14 1.70699e-14)
(-1.04011e-13 -1.22979e-12 5.44322e-12 -6.54632e-15 1.37498e-14 6.5458e-15)
(-2.99145e-14 -5.97731e-13 2.08542e-12 -1.89378e-15 3.03235e-15 1.89372e-15)
(-5.81728e-15 -2.50851e-13 6.52957e-13 -3.72792e-16 4.1358e-16 3.7279e-16)
(-6.28988e-16 -7.81222e-14 1.38343e-13 -3.43549e-17 2.07186e-17 3.43549e-17)
(-1.23735e-17 -6.63975e-15 6.63974e-15 2.37967e-21 7.45681e-28 -2.37967e-21)
(-2.36953e-22 -1.82888e-18 5.65288e-19 -4.66973e-23 -6.83231e-23 4.66973e-23)
(9.08974e-09 -8.55915e-11 4.17527e-07 1.49129e-13 -3.82326e-10 -1.4105e-13)
(9.06327e-09 -2.42479e-10 4.15467e-07 1.25168e-12 -1.12974e-09 -1.18063e-12)
(8.91725e-09 -3.62002e-10 4.1188e-07 3.06174e-12 -1.84342e-09 -2.87193e-12)
(8.74138e-09 -4.33515e-10 4.07447e-07 5.0354e-12 -2.52394e-09 -4.67777e-12)
(8.56546e-09 -4.57756e-10 4.02822e-07 6.67727e-12 -3.17161e-09 -6.10931e-12)
(8.4128e-09 -4.43982e-10 3.9851e-07 7.67628e-12 -3.78578e-09 -6.86225e-12)
(8.29874e-09 -4.0601e-10 3.94823e-07 7.96249e-12 -4.36465e-09 -6.87401e-12)
(8.23039e-09 -3.59006e-10 3.91876e-07 7.69786e-12 -4.90512e-09 -6.31471e-12)
(8.20761e-09 -3.17142e-10 3.89617e-07 7.21733e-12 -5.40281e-09 -5.52834e-12)
(8.2244e-09 -2.91639e-10 3.87873e-07 6.9284e-12 -5.85244e-09 -4.93235e-12)
(8.27135e-09 -2.89462e-10 3.86407e-07 7.19869e-12 -6.24843e-09 -4.90478e-12)
(8.33728e-09 -3.12208e-10 3.84968e-07 8.24205e-12 -6.58573e-09 -5.66984e-12)
(8.4129e-09 -3.56459e-10 3.83344e-07 1.00643e-11 -6.86063e-09 -7.24259e-12)
(8.49309e-09 -4.16431e-10 3.81393e-07 1.25221e-11 -7.07111e-09 -9.4868e-12)
(8.57819e-09 -4.87965e-10 3.79033e-07 1.54713e-11 -7.21642e-09 -1.22633e-11)
(8.67162e-09 -5.7191e-10 3.76209e-07 1.8922e-11 -7.2964e-09 -1.55851e-11)
(8.7788e-09 -6.76633e-10 3.7285e-07 2.3159e-11 -7.31059e-09 -1.97384e-11)
(8.89641e-09 -8.14782e-10 3.68817e-07 2.86233e-11 -7.25803e-09 -2.51668e-11)
(9.0164e-09 -1.00106e-09 3.64098e-07 3.57968e-11 -7.14048e-09 -3.23553e-11)
(9.13315e-09 -1.25271e-09 3.58274e-07 4.5183e-11 -6.95297e-09 -4.18081e-11)
(9.22365e-09 -1.58264e-09 3.51007e-07 5.70213e-11 -6.6953e-09 -5.3767e-11)
(9.26507e-09 -1.99642e-09 3.41976e-07 7.11591e-11 -6.36972e-09 -6.80777e-11)
(9.22492e-09 -2.48881e-09 3.30887e-07 8.69702e-11 -5.98144e-09 -8.41116e-11)
(9.07606e-09 -3.04112e-09 3.1756e-07 1.0335e-10 -5.5398e-09 -1.00756e-10)
(8.79675e-09 -3.62363e-09 3.01965e-07 1.18907e-10 -5.05653e-09 -1.1661e-10)
(8.37354e-09 -4.19208e-09 2.84229e-07 1.31896e-10 -4.543e-09 -1.29917e-10)
(7.82188e-09 -4.69168e-09 2.64682e-07 1.40335e-10 -4.00795e-09 -1.38682e-10)
(7.2404e-09 -5.10174e-09 2.43876e-07 1.43482e-10 -3.46287e-09 -1.42143e-10)
(6.77735e-09 -5.49827e-09 2.22348e-07 1.43954e-10 -2.93286e-09 -1.42881e-10)
(6.29363e-09 -5.91594e-09 2.00006e-07 1.43138e-10 -2.4333e-09 -1.42302e-10)
(5.75758e-09 -6.31269e-09 1.76991e-07 1.39691e-10 -1.96581e-09 -1.39063e-10)
(5.17396e-09 -6.65246e-09 1.53587e-07 1.32859e-10 -1.53683e-09 -1.32407e-10)
(4.53606e-09 -6.89725e-09 1.30147e-07 1.22422e-10 -1.15519e-09 -1.22113e-10)
(3.8318e-09 -6.9937e-09 1.07119e-07 1.08479e-10 -8.29017e-10 -1.08284e-10)
(3.06003e-09 -6.87559e-09 8.50727e-08 9.157e-11 -5.63662e-10 -9.14566e-11)
(2.24663e-09 -6.48185e-09 6.46898e-08 7.28002e-11 -3.59996e-10 -7.2742e-11)
(1.45233e-09 -5.78619e-09 4.66922e-08 5.37159e-11 -2.13536e-10 -5.36909e-11)
(7.62994e-10 -4.82779e-09 3.17032e-08 3.59159e-11 -1.15229e-10 -3.59079e-11)
(2.58094e-10 -3.72324e-09 2.0086e-08 2.07185e-11 -5.39713e-11 -2.07171e-11)
(-3.0202e-11 -2.6453e-09 1.18428e-08 9.23004e-12 -1.96301e-11 -9.23016e-12)
(-1.22352e-10 -1.72595e-09 6.44921e-09 2.06561e-12 -3.5827e-12 -2.06564e-12)
(-9.58478e-11 -1.04001e-09 3.2266e-09 -8.69055e-13 1.20808e-12 8.69039e-13)
(-4.52924e-11 -5.78612e-10 1.46099e-09 -1.04946e-12 1.11718e-12 1.04942e-12)
(-1.45632e-11 -2.87235e-10 5.697e-10 -4.49924e-13 3.32781e-13 4.49916e-13)
(-2.88941e-12 -1.0777e-10 1.58891e-10 -8.05484e-14 3.20628e-14 8.0548e-14)
(-1.82056e-13 -1.51869e-11 1.51869e-11 1.26589e-17 5.42696e-24 -1.26589e-17)
(-6.2913e-16 -1.38342e-13 7.8122e-14 3.44648e-17 2.07849e-17 -3.44649e-17)
(-2.18818e-20 -1.83209e-17 3.22156e-18 4.49184e-22 1.23775e-21 -4.49184e-22)
(-2.02741e-07 -2.2782e-09 8.95891e-06 3.9289e-12 -7.44947e-09 -4.05719e-12)
(-2.02921e-07 -6.40725e-09 8.92723e-06 3.27725e-11 -2.19744e-08 -3.38951e-11)
(-2.00934e-07 -9.42621e-09 8.872e-06 7.91556e-11 -3.57182e-08 -8.21186e-11)
(-1.98432e-07 -1.09943e-08 8.80369e-06 1.27537e-10 -4.86379e-08 -1.33028e-10)
(-1.95586e-07 -1.11221e-08 8.73235e-06 1.64159e-10 -6.07299e-08 -1.72708e-10)
(-1.92498e-07 -1.00878e-08 8.66585e-06 1.80914e-10 -7.19989e-08 -1.92896e-10)
(-1.89187e-07 -8.32093e-09 8.60909e-06 1.76727e-10 -8.24473e-08 -1.9236e-10)
(-1.85609e-07 -6.30394e-09 8.56391e-06 1.56985e-10 -9.20626e-08 -1.76328e-10)
(-1.81674e-07 -4.49569e-09 8.52952e-06 1.31651e-10 -1.00813e-07 -1.54597e-10)
(-1.77281e-07 -3.26569e-09 8.50318e-06 1.12396e-10 -1.08647e-07 -1.38677e-10)
(-1.72326e-07 -2.8496e-09 8.48107e-06 1.09578e-10 -1.15502e-07 -1.3877e-10)
(-1.66727e-07 -3.31188e-09 8.45913e-06 1.29281e-10 -1.21312e-07 -1.60825e-10)
(-1.60397e-07 -4.55612e-09 8.43386e-06 1.71971e-10 -1.26022e-07 -2.05193e-10)
(-1.53223e-07 -6.40842e-09 8.40274e-06 2.34125e-10 -1.29597e-07 -2.68266e-10)
(-1.45037e-07 -8.74437e-09 8.36419e-06 3.12197e-10 -1.32028e-07 -3.46438e-10)
(-1.35631e-07 -1.15997e-08 8.31701e-06 4.06761e-10 -1.33328e-07 -4.40254e-10)
(-1.24756e-07 -1.52526e-08 8.2597e-06 5.25784e-10 -1.33534e-07 -5.57679e-10)
(-1.12347e-07 -2.01288e-08 8.18996e-06 6.81835e-10 -1.3271e-07 -7.11361e-10)
(-9.85954e-08 -2.67144e-08 8.10897e-06 8.88319e-10 -1.30919e-07 -9.14845e-10)
(-8.31026e-08 -3.55931e-08 8.0082e-06 1.15998e-09 -1.28099e-07 -1.18289e-09)
(-6.60545e-08 -4.72427e-08 7.88175e-06 1.5069e-09 -1.24327e-07 -1.52577e-09)
(-4.76854e-08 -6.19235e-08 7.72397e-06 1.9304e-09 -1.19671e-07 -1.94496e-09)
(-2.85475e-08 -7.95691e-08 7.52924e-06 2.42083e-09 -1.14212e-07 -2.43105e-09)
(-9.22675e-09 -9.96922e-08 7.29364e-06 2.95605e-09 -1.08041e-07 -2.96208e-09)
(9.65155e-09 -1.21476e-07 7.01535e-06 3.50462e-09 -1.01225e-07 -3.50677e-09)
(2.73988e-08 -1.43669e-07 6.69463e-06 4.01869e-09 -9.3713e-08 -4.01742e-09)
(4.33791e-08 -1.6462e-07 6.33405e-06 4.4259e-09 -8.52414e-08 -4.42186e-09)
(5.77399e-08 -1.83541e-07 5.93954e-06 4.67403e-09 -7.5708e-08 -4.66813e-09)
(7.18495e-08 -2.02722e-07 5.5186e-06 4.87043e-09 -6.63454e-08 -4.8633e-09)
(8.39263e-08 -2.23417e-07 5.06889e-06 5.12255e-09 -5.81237e-08 -5.11459e-09)
(9.33226e-08 -2.44383e-07 4.59233e-06 5.4025e-09 -5.07252e-08 -5.39398e-09)
(9.95537e-08 -2.64501e-07 4.09304e-06 5.70694e-09 -4.40628e-08 -5.69803e-09)
(1.01671e-07 -2.82444e-07 3.57656e-06 6.04837e-09 -3.81316e-08 -6.03919e-09)
(9.86145e-08 -2.96128e-07 3.05065e-06 6.4264e-09 -3.28514e-08 -6.41706e-09)
(8.97364e-08 -3.02629e-07 2.52615e-06 6.79827e-09 -2.80159e-08 -6.789e-09)
(7.53277e-08 -2.98601e-07 2.01737e-06 7.04949e-09 -2.33294e-08 -7.04076e-09)
(5.68962e-08 -2.81234e-07 1.54138e-06 6.98345e-09 -1.85266e-08 -6.97607e-09)
(3.70213e-08 -2.49641e-07 1.11634e-06 6.37151e-09 -1.3549e-08 -6.36641e-09)
(1.87238e-08 -2.06234e-07 7.58759e-07 5.09817e-09 -8.69193e-09 -5.09576e-09)
(4.3238e-09 -1.57281e-07 4.80394e-07 3.35724e-09 -4.57853e-09 -3.35684e-09)
(-3.69921e-09 -1.09746e-07 2.79665e-07 1.64818e-09 -1.77623e-09 -1.64836e-09)
(-4.88221e-09 -6.97828e-08 1.47492e-07 5.2321e-10 -4.29032e-10 -5.23269e-10)
(-2.81948e-09 -3.91524e-08 6.72471e-08 7.96236e-11 -4.51953e-11 -7.96263e-11)
(-9.06479e-10 -1.67897e-08 2.26152e-08 -2.04468e-13 6.18074e-14 2.04468e-13)
(-1.18661e-10 -3.56288e-09 3.56287e-09 4.03869e-15 2.32086e-21 -4.03869e-15)
(-2.88964e-12 -1.5889e-10 1.07769e-10 8.0798e-14 3.21624e-14 -8.07984e-14)
(-5.81847e-15 -6.52955e-13 2.5085e-13 3.73282e-16 4.14127e-16 -3.73284e-16)
(-2.87736e-19 -8.88315e-17 1.07176e-17 1.34147e-20 5.47845e-20 -1.34148e-20)
(-2.32748e-06 -1.3881e-08 4.12205e-05 2.14431e-11 -3.0007e-08 -2.26116e-11)
(-2.34067e-06 -3.89772e-08 4.11403e-05 1.78078e-10 -8.82909e-08 -1.88299e-10)
(-2.34052e-06 -5.71512e-08 4.10008e-05 4.26489e-10 -1.42799e-07 -4.53403e-10)
(-2.33922e-06 -6.62321e-08 4.08297e-05 6.78888e-10 -1.93123e-07 -7.28474e-10)
(-2.33505e-06 -6.62367e-08 4.06532e-05 8.60158e-10 -2.39162e-07 -9.3672e-10)
(-2.32655e-06 -5.88819e-08 4.04921e-05 9.29304e-10 -2.81005e-07 -1.0355e-09)
(-2.31268e-06 -4.68941e-08 4.03594e-05 8.85271e-10 -3.18841e-07 -1.02222e-09)
(-2.29289e-06 -3.33882e-08 4.02599e-05 7.61402e-10 -3.52861e-07 -9.28823e-10)
(-2.26705e-06 -2.13561e-08 4.01913e-05 6.13326e-10 -3.83202e-07 -8.09717e-10)
(-2.23539e-06 -1.32241e-08 4.01458e-05 5.03111e-10 -4.09914e-07 -7.25923e-10)
(-2.19839e-06 -1.05533e-08 4.01126e-05 4.83923e-10 -4.32954e-07 -7.29732e-10)
(-2.15667e-06 -1.38093e-08 4.00803e-05 5.86153e-10 -4.52213e-07 -8.5084e-10)
(-2.11076e-06 -2.24417e-08 4.00385e-05 8.11961e-10 -4.67551e-07 -1.09089e-09)
(-2.06088e-06 -3.5418e-08 3.99789e-05 1.14416e-09 -4.78868e-07 -1.43238e-09)
(-2.00683e-06 -5.20357e-08 3.98953e-05 1.56624e-09 -4.86165e-07 -1.85872e-09)
(-1.94815e-06 -7.26376e-08 3.97826e-05 2.08289e-09 -4.89585e-07 -2.37481e-09)
(-1.88414e-06 -9.91495e-08 3.96343e-05 2.73632e-09 -4.8947e-07 -3.02335e-09)
(-1.81476e-06 -1.34539e-07 3.94432e-05 3.59421e-09 -4.86399e-07 -3.87293e-09)
(-1.73914e-06 -1.82048e-07 3.92145e-05 4.72433e-09 -4.80672e-07 -4.9917e-09)
(-1.6585e-06 -2.45582e-07 3.89192e-05 6.20557e-09 -4.7234e-07 -6.45932e-09)
(-1.57474e-06 -3.28767e-07 3.85387e-05 8.11082e-09 -4.62074e-07 -8.34993e-09)
(-1.48913e-06 -4.33979e-07 3.80551e-05 1.04815e-08 -4.50346e-07 -1.07058e-08)
(-1.40445e-06 -5.61719e-07 3.74495e-05 1.33201e-08 -4.37525e-07 -1.353e-08)
(-1.3223e-06 -7.09979e-07 3.67068e-05 1.65773e-08 -4.23807e-07 -1.67736e-08)
(-1.24255e-06 -8.74993e-07 3.58172e-05 2.01608e-08 -4.0906e-07 -2.03443e-08)
(-1.16379e-06 -1.05095e-06 3.47745e-05 2.38706e-08 -3.92104e-07 -2.40407e-08)
(-1.08477e-06 -1.23028e-06 3.35733e-05 2.72211e-08 -3.6912e-07 -2.73744e-08)
(-9.91374e-07 -1.4098e-06 3.22057e-05 2.95276e-08 -3.35381e-07 -2.96571e-08)
(-8.25973e-07 -1.60222e-06 3.0662e-05 3.17677e-08 -3.02362e-07 -3.187e-08)
(-6.67117e-07 -1.81589e-06 2.89467e-05 3.55571e-08 -2.81774e-07 -3.56429e-08)
(-5.17878e-07 -2.04657e-06 2.706e-05 4.08995e-08 -2.68495e-07 -4.09741e-08)
(-3.84237e-07 -2.28982e-06 2.50042e-05 4.8279e-08 -2.61146e-07 -4.83465e-08)
(-2.73634e-07 -2.5389e-06 2.2787e-05 5.84774e-08 -2.58994e-07 -5.85408e-08)
(-1.91174e-07 -2.78077e-06 2.04256e-05 7.21916e-08 -2.60093e-07 -7.2253e-08)
(-1.36093e-07 -2.99383e-06 1.79482e-05 8.94529e-08 -2.60577e-07 -8.95132e-08)
(-1.00202e-07 -3.14756e-06 1.53948e-05 1.088e-07 -2.54863e-07 -1.08857e-07)
(-7.0662e-08 -3.20455e-06 1.28148e-05 1.26404e-07 -2.36868e-07 -1.26453e-07)
(-3.79888e-08 -3.12614e-06 1.02674e-05 1.35773e-07 -2.02254e-07 -1.35803e-07)
(-6.34862e-09 -2.88242e-06 7.8238e-06 1.29022e-07 -1.5133e-07 -1.29029e-07)
(-1.02302e-08 -2.46627e-06 5.57207e-06 1.01043e-07 -9.17749e-08 -1.01045e-07)
(-5.16156e-08 -1.90436e-06 3.59621e-06 5.74347e-08 -3.90022e-08 -5.74446e-08)
(-6.7095e-08 -1.27451e-06 1.99896e-06 1.96309e-08 -9.12914e-09 -1.96347e-08)
(-4.09218e-08 -6.62448e-07 8.44801e-07 2.76227e-09 -6.77934e-10 -2.76247e-09)
(-1.10788e-08 -2.02676e-07 2.02676e-07 2.54386e-13 1.729e-19 -2.54386e-13)
(-9.06516e-10 -2.26152e-08 1.67896e-08 2.50903e-13 7.5844e-14 -2.50903e-13)
(-1.45646e-11 -5.69698e-10 2.87234e-10 4.50725e-13 3.3338e-13 -4.50733e-13)
(-2.99193e-14 -2.08541e-12 5.97729e-13 1.89523e-15 3.03476e-15 -1.89528e-15)
(-1.75611e-18 -2.96156e-16 2.6845e-17 1.01839e-19 5.57192e-19 -1.01843e-19)
(3.91534e-07 -3.90076e-08 7.67165e-05 4.63308e-11 -4.56962e-08 -4.60972e-11)
(3.70118e-07 -1.10142e-07 7.66508e-05 3.83504e-10 -1.33838e-07 -3.81537e-10)
(3.29256e-07 -1.63382e-07 7.65413e-05 9.14152e-10 -2.14737e-07 -9.09333e-10)
(2.82827e-07 -1.93317e-07 7.64135e-05 1.44996e-09 -2.87356e-07 -1.44187e-09)
(2.41531e-07 -1.99915e-07 7.62921e-05 1.8362e-09 -3.51342e-07 -1.82483e-09)
(2.14051e-07 -1.87438e-07 7.61964e-05 1.99616e-09 -4.06973e-07 -1.98157e-09)
(2.06194e-07 -1.62754e-07 7.61381e-05 1.93743e-09 -4.54896e-07 -1.9195e-09)
(2.20592e-07 -1.33783e-07 7.61208e-05 1.73363e-09 -4.95867e-07 -1.71194e-09)
(2.57167e-07 -1.08174e-07 7.61408e-05 1.49511e-09 -5.3058e-07 -1.46902e-09)
(3.13636e-07 -9.21558e-08 7.61896e-05 1.33671e-09 -5.59553e-07 -1.30549e-09)
(3.86338e-07 -8.97766e-08 7.62555e-05 1.35037e-09 -5.83089e-07 -1.31341e-09)
(4.70764e-07 -1.02387e-07 7.63259e-05 1.58404e-09 -6.01309e-07 -1.541e-09)
(5.626e-07 -1.2889e-07 7.63885e-05 2.03629e-09 -6.14193e-07 -1.98723e-09)
(6.58404e-07 -1.6708e-07 7.64316e-05 2.67452e-09 -6.21696e-07 -2.61988e-09)
(7.56206e-07 -2.15652e-07 7.64446e-05 3.46975e-09 -6.23903e-07 -3.41029e-09)
(8.5487e-07 -2.75967e-07 7.64166e-05 4.42975e-09 -6.21123e-07 -4.36646e-09)
(9.54018e-07 -3.53372e-07 7.63357e-05 5.62245e-09 -6.13937e-07 -5.55639e-09)
(1.05213e-06 -4.55861e-07 7.61919e-05 7.14989e-09 -6.02997e-07 -7.08221e-09)
(1.15162e-06 -5.91811e-07 7.59921e-05 9.11136e-09 -5.8939e-07 -9.0429e-09)
(1.2435e-06 -7.71419e-07 7.56973e-05 1.16308e-08 -5.74103e-07 -1.15627e-08)
(1.31884e-06 -1.00477e-06 7.52852e-05 1.48238e-08 -5.57977e-07 -1.47573e-08)
(1.37151e-06 -1.29909e-06 7.47358e-05 1.87699e-08 -5.41821e-07 -1.87061e-08)
(1.39103e-06 -1.65738e-06 7.40272e-05 2.35014e-08 -5.26156e-07 -2.34417e-08)
(1.37175e-06 -2.07683e-06 7.31417e-05 2.89631e-08 -5.10782e-07 -2.89089e-08)
(1.31646e-06 -2.55114e-06 7.20679e-05 3.50295e-08 -4.95042e-07 -3.4982e-08)
(1.23674e-06 -3.07134e-06 7.0797e-05 4.13761e-08 -4.76632e-07 -4.13365e-08)
(1.1431e-06 -3.62859e-06 6.93124e-05 4.64802e-08 -4.43162e-07 -4.64506e-08)
(1.01218e-06 -4.2267e-06 6.75808e-05 4.58126e-08 -3.65057e-07 -4.57974e-08)
(8.04404e-07 -4.89022e-06 6.55592e-05 4.46744e-08 -2.97904e-07 -4.46698e-08)
(5.70185e-07 -5.64106e-06 6.32472e-05 5.09116e-08 -2.83205e-07 -5.0913e-08)
(3.15137e-07 -6.48574e-06 6.06421e-05 6.2834e-08 -2.90426e-07 -6.28424e-08)
(3.93556e-08 -7.42752e-06 5.77378e-05 8.27783e-08 -3.16418e-07 -8.27978e-08)
(-2.45894e-07 -8.4657e-06 5.4542e-05 1.14549e-07 -3.60072e-07 -1.14588e-07)
(-5.1511e-07 -9.58876e-06 5.10787e-05 1.62299e-07 -4.16933e-07 -1.62373e-07)
(-7.31644e-07 -1.07681e-05 4.73792e-05 2.29178e-07 -4.7793e-07 -2.29306e-07)
(-8.5717e-07 -1.19498e-05 4.34621e-05 3.15537e-07 -5.30091e-07 -3.15739e-07)
(-8.66031e-07 -1.30414e-05 3.93046e-05 4.16517e-07 -5.581e-07 -4.16797e-07)
(-7.54556e-07 -1.38888e-05 3.48158e-05 5.18222e-07 -5.45657e-07 -5.18555e-07)
(-5.17004e-07 -1.42434e-05 2.98192e-05 5.88687e-07 -4.75209e-07 -5.88977e-07)
(-3.13655e-07 -1.36902e-05 2.40345e-05 5.59324e-07 -3.31429e-07 -5.59489e-07)
(-3.27394e-07 -1.16692e-05 1.72033e-05 3.57905e-07 -1.42285e-07 -3.57987e-07)
(-3.56004e-07 -8.03083e-06 9.86299e-06 1.06757e-07 -2.20596e-08 -1.06774e-07)
(-1.88434e-07 -3.7154e-06 3.71539e-06 4.27174e-12 3.0075e-18 -4.27174e-12)
(-4.09232e-08 -8.44799e-07 6.62446e-07 -2.76062e-09 -6.77485e-10 2.76042e-09)
(-2.81967e-09 -6.7247e-08 3.91523e-08 -7.95039e-11 -4.51259e-11 7.95012e-11)
(-4.5297e-11 -1.46098e-09 5.7861e-10 1.05131e-12 1.11919e-12 -1.05134e-12)
(-1.04025e-13 -5.4432e-12 1.22979e-12 6.54962e-15 1.37578e-14 -6.55014e-15)
(-6.658e-18 -7.88028e-16 5.66147e-17 4.53509e-19 3.14121e-18 -4.53584e-19)
(2.80163e-06 -5.98883e-08 8.9456e-05 5.13883e-11 -3.87728e-08 -5.07915e-11)
(2.82752e-06 -1.6897e-07 8.94557e-05 4.2161e-10 -1.12794e-07 -4.16501e-10)
(2.81713e-06 -2.50576e-07 8.94554e-05 9.90694e-10 -1.78847e-07 -9.77835e-10)
(2.80731e-06 -2.96668e-07 8.94551e-05 1.54287e-09 -2.35546e-07 -1.52052e-09)
(2.80182e-06 -3.07063e-07 8.94549e-05 1.90957e-09 -2.8221e-07 -1.87735e-09)
(2.80423e-06 -2.88248e-07 8.94549e-05 2.02054e-09 -3.19059e-07 -1.97911e-09)
(2.8176e-06 -2.50805e-07 8.94549e-05 1.90264e-09 -3.46861e-07 -1.85326e-09)
(2.84449e-06 -2.07018e-07 8.94549e-05 1.64906e-09 -3.66608e-07 -1.59327e-09)
(2.88667e-06 -1.68765e-07 8.94549e-05 1.37927e-09 -3.793e-07 -1.31873e-09)
(2.945e-06 -1.45713e-07 8.94548e-05 1.20209e-09 -3.85802e-07 -1.13842e-09)
(3.01952e-06 -1.44179e-07 8.94546e-05 1.19037e-09 -3.86791e-07 -1.12516e-09)
(3.10921e-06 -1.66504e-07 8.94544e-05 1.3679e-09 -3.82741e-07 -1.30267e-09)
(3.21295e-06 -2.11559e-07 8.9454e-05 1.71247e-09 -3.7391e-07 -1.64871e-09)
(3.33026e-06 -2.76779e-07 8.94535e-05 2.17613e-09 -3.60389e-07 -2.11526e-09)
(3.4621e-06 -3.61085e-07 8.94526e-05 2.7124e-09 -3.42248e-07 -2.65572e-09)
(3.611e-06 -4.67395e-07 8.94513e-05 3.29429e-09 -3.19639e-07 -3.24289e-09)
(3.78151e-06 -6.04402e-07 8.94495e-05 3.91678e-09 -2.92821e-07 -3.87156e-09)
(3.97483e-06 -7.84479e-07 8.94467e-05 4.55889e-09 -2.61826e-07 -4.52059e-09)
(4.18989e-06 -1.02093e-06 8.94425e-05 5.17343e-09 -2.27781e-07 -5.14234e-09)
(4.43319e-06 -1.3306e-06 8.94362e-05 5.69304e-09 -1.91973e-07 -5.66897e-09)
(4.70147e-06 -1.73052e-06 8.94266e-05 5.96409e-09 -1.54405e-07 -5.94673e-09)
(4.99507e-06 -2.23499e-06 8.9412e-05 5.75285e-09 -1.15168e-07 -5.74167e-09)
(5.30694e-06 -2.85382e-06 8.93905e-05 4.71979e-09 -7.3901e-08 -4.71398e-09)
(5.63386e-06 -3.59017e-06 8.93595e-05 2.32248e-09 -2.88641e-08 -2.32088e-09)
(5.98118e-06 -4.44434e-06 8.9316e-05 -2.17751e-09 2.18225e-08 2.17693e-09)
(6.36608e-06 -5.41685e-06 8.9256e-05 -9.6075e-09 7.88206e-08 9.60819e-09)
(6.80373e-06 -6.5138e-06 8.91747e-05 -2.06899e-08 1.40749e-07 2.0697e-08)
(7.12284e-06 -7.74053e-06 8.88238e-05 -3.68862e-08 2.09794e-07 3.69071e-08)
(6.62744e-06 -9.0099e-06 8.68363e-05 -5.65158e-08 2.69092e-07 5.65529e-08)
(6.10293e-06 -1.04645e-05 8.46177e-05 -8.23911e-08 3.27624e-07 8.24482e-08)
(5.6015e-06 -1.21288e-05 8.21966e-05 -1.15817e-07 3.83442e-07 1.15897e-07)
(5.13828e-06 -1.40341e-05 7.96139e-05 -1.58447e-07 4.34959e-07 1.58553e-07)
(4.74857e-06 -1.62165e-05 7.69358e-05 -2.10769e-07 4.77229e-07 2.10901e-07)
(4.47676e-06 -1.87138e-05 7.42415e-05 -2.7011e-07 5.01207e-07 2.70267e-07)
(4.35224e-06 -2.15584e-05 7.15892e-05 -3.25939e-07 4.91582e-07 3.2611e-07)
(4.36322e-06 -2.47581e-05 6.89595e-05 -3.5273e-07 4.27495e-07 3.52885e-07)
(4.43624e-06 -2.82467e-05 6.61775e-05 -3.04627e-07 2.91603e-07 3.04719e-07)
(4.42196e-06 -3.17774e-05 6.28094e-05 -1.23583e-07 9.08426e-08 1.23594e-07)
(4.25751e-06 -3.47404e-05 5.8064e-05 2.09185e-07 -1.12304e-07 -2.09149e-07)
(3.43029e-06 -3.58537e-05 5.07245e-05 4.93446e-07 -1.74975e-07 -4.9329e-07)
(1.04437e-06 -3.25317e-05 3.8921e-05 4.31453e-07 -7.78806e-08 -4.31411e-07)
(-4.25189e-07 -2.27066e-05 2.27066e-05 1.85813e-11 1.07161e-17 -1.85813e-11)
(-3.5602e-07 -9.86296e-06 8.03079e-06 -1.06756e-07 -2.20559e-08 1.06738e-07)
(-6.71006e-08 -1.99895e-06 1.2745e-06 -1.96309e-08 -9.12739e-09 1.96271e-08)
(-4.88273e-09 -1.47492e-07 6.97825e-08 -5.2303e-10 -4.28836e-10 5.2297e-10)
(-9.58589e-11 -3.22659e-09 1.04001e-09 8.72861e-13 1.2134e-12 -8.72877e-13)
(-2.50707e-13 -1.23892e-11 2.28517e-12 1.70784e-14 4.47379e-14 -1.70809e-14)
(-1.68349e-17 -1.80476e-15 1.06325e-16 1.42208e-18 1.20382e-17 -1.42261e-18)
(-2.042e-06 -7.28238e-08 8.94578e-05 3.77107e-11 -2.30787e-08 -3.78084e-11)
(-2.02951e-06 -2.04688e-07 8.94576e-05 3.04391e-10 -6.62723e-08 -3.05187e-10)
(-2.02546e-06 -3.01919e-07 8.94572e-05 6.93756e-10 -1.02384e-07 -6.9565e-10)
(-2.01627e-06 -3.54965e-07 8.9457e-05 1.03392e-09 -1.29746e-07 -1.03694e-09)
(-1.9987e-06 -3.639e-07 8.9457e-05 1.20557e-09 -1.47512e-07 -1.20944e-09)
(-1.96949e-06 -3.37256e-07 8.94573e-05 1.18067e-09 -1.55792e-07 -1.18493e-09)
(-1.92575e-06 -2.88631e-07 8.94578e-05 1.00792e-09 -1.55295e-07 -1.01208e-09)
(-1.86482e-06 -2.33641e-07 8.94585e-05 7.72914e-10 -1.47005e-07 -7.76548e-10)
(-1.78469e-06 -1.87282e-07 8.94593e-05 5.56403e-10 -1.31961e-07 -5.59241e-10)
(-1.68424e-06 -1.61741e-07 8.94601e-05 4.04429e-10 -1.11128e-07 -4.06367e-10)
(-1.56324e-06 -1.65079e-07 8.94611e-05 3.16276e-10 -8.53139e-08 -3.17373e-10)
(-1.42268e-06 -2.00657e-07 8.9462e-05 2.4758e-10 -5.50707e-08 -2.48025e-10)
(-1.2639e-06 -2.67855e-07 8.94628e-05 1.23345e-10 -2.0587e-08 -1.23416e-10)
(-1.08755e-06 -3.64546e-07 8.94633e-05 -1.49217e-10 1.83149e-08 1.49203e-10)
(-8.92656e-07 -4.90476e-07 8.94635e-05 -6.79923e-10 6.20468e-08 6.79664e-10)
(-6.76013e-07 -6.50113e-07 8.94631e-05 -1.61325e-09 1.11067e-07 1.61255e-09)
(-4.31159e-07 -8.54543e-07 8.94618e-05 -3.16253e-09 1.65604e-07 3.16144e-09)
(-1.56026e-07 -1.11887e-06 8.9459e-05 -5.64825e-09 2.25806e-07 5.64733e-09)
(1.50082e-07 -1.45973e-06 8.94538e-05 -9.51337e-09 2.91369e-07 9.51395e-09)
(4.97245e-07 -1.89752e-06 8.94447e-05 -1.53604e-08 3.61671e-07 1.5365e-08)
(8.84258e-07 -2.45226e-06 8.94297e-05 -2.39916e-08 4.3675e-07 2.40046e-08)
(1.31623e-06 -3.14089e-06 8.94057e-05 -3.63977e-08 5.16763e-07 3.64259e-08)
(1.78793e-06 -3.97526e-06 8.93689e-05 -5.37675e-08 6.02263e-07 5.38208e-08)
(2.29744e-06 -4.95963e-06 8.9315e-05 -7.76281e-08 6.95551e-07 7.77212e-08)
(2.8488e-06 -6.09567e-06 8.92385e-05 -1.09859e-07 7.98692e-07 1.10015e-07)
(3.44999e-06 -7.38757e-06 8.91328e-05 -1.5229e-07 9.10157e-07 1.52539e-07)
(4.10644e-06 -8.84808e-06 8.89896e-05 -2.03862e-07 1.01224e-06 2.04235e-07)
(4.80901e-06 -1.05067e-05 8.87976e-05 -2.56392e-07 1.06516e-06 2.5689e-07)
(5.49126e-06 -1.24238e-05 8.85384e-05 -3.29129e-07 1.14608e-06 3.2981e-07)
(6.25917e-06 -1.46538e-05 8.81826e-05 -4.51041e-07 1.31487e-06 4.52102e-07)
(7.14062e-06 -1.72369e-05 8.76949e-05 -6.21961e-07 1.51453e-06 6.23643e-07)
(8.11186e-06 -2.02123e-05 8.70315e-05 -8.49227e-07 1.72092e-06 8.51848e-07)
(9.1292e-06 -2.36083e-05 8.61393e-05 -1.13505e-06 1.90361e-06 1.13897e-06)
(1.01224e-05 -2.74371e-05 8.4957e-05 -1.46599e-06 2.01852e-06 1.47145e-06)
(1.09935e-05 -3.16925e-05 8.34181e-05 -1.80075e-06 2.01132e-06 1.80764e-06)
(1.16409e-05 -3.63494e-05 8.14536e-05 -2.06184e-06 1.8334e-06 2.06939e-06)
(1.2007e-05 -4.13623e-05 7.89948e-05 -2.14009e-06 1.46911e-06 2.14692e-06)
(1.20701e-05 -4.66584e-05 7.59715e-05 -1.91161e-06 9.60055e-07 1.91621e-06)
(1.21784e-05 -5.21222e-05 7.23272e-05 -1.22568e-06 4.05476e-07 1.22734e-06)
(1.32708e-05 -5.76241e-05 6.80213e-05 -3.57055e-07 5.92247e-08 3.57182e-07)
(7.97434e-06 -5.45459e-05 5.45459e-05 3.59428e-11 1.04979e-18 -3.59428e-11)
(1.04427e-06 -3.89209e-05 3.25316e-05 -4.3136e-07 -7.78717e-08 4.31402e-07)
(-3.27446e-07 -1.72032e-05 1.16691e-05 -3.5796e-07 -1.42275e-07 3.57878e-07)
(-5.16292e-08 -3.59619e-06 1.90435e-06 -5.74384e-08 -3.89981e-08 5.74285e-08)