/*--------------------------------*- C++ -*----------------------------------*\
| =========                 |                                                 |
| \\      /  F ield         | OpenFOAM: The Open Source CFD Toolbox           |
|  \\    /   O peration     | Version:  2412                                  |
|   \\  /    A nd           | Website:  www.openfoam.com                      |
|    \\/     M anipulation  |                                                 |
\*---------------------------------------------------------------------------*/
FoamFile
{
    version     2.0;
    format      ascii;
    arch        "LSB;label=32;scalar=64";
    class       volSymmTensorField;
    location    "2130";
    object      Tij2;
}
// * * * * * * * * * * * * * * * * * * * * * * * * * * * * * * * * * * * * * //

dimensions      [0 0 0 0 0 0 0];

internalField   nonuniform List<symmTensor> 
2304
(
(-1.99073e-05 2.12063e-08 -2.79793e-08 -2.25663e-11 -6.58425e-10 1.99073e-05)
(-1.98623e-05 6.312e-08 -2.81095e-08 -2.00397e-10 -1.85608e-09 1.98625e-05)
(-1.97838e-05 1.04364e-07 -2.8079e-08 -5.50128e-10 -2.73976e-09 1.97843e-05)
(-1.96862e-05 1.45338e-07 -2.80304e-08 -1.0724e-09 -3.20879e-09 1.96873e-05)
(-1.9584e-05 1.86054e-07 -2.79507e-08 -1.76694e-09 -3.2611e-09 1.95858e-05)
(-1.94884e-05 2.26194e-07 -2.78257e-08 -2.62479e-09 -2.97154e-09 1.9491e-05)
(-1.94066e-05 2.65226e-07 -2.76449e-08 -3.62439e-09 -2.46137e-09 1.94102e-05)
(-1.93414e-05 3.02526e-07 -2.74019e-08 -4.73166e-09 -1.86957e-09 1.93461e-05)
(-1.9292e-05 3.37459e-07 -2.7093e-08 -5.90272e-09 -1.33018e-09 1.92979e-05)
(-1.92546e-05 3.69461e-07 -2.67196e-08 -7.08917e-09 -9.51693e-10 1.92617e-05)
(-1.9224e-05 3.98087e-07 -2.62848e-08 -8.24339e-09 -8.03062e-10 1.92323e-05)
(-1.91946e-05 4.23042e-07 -2.57956e-08 -9.32356e-09 -9.02505e-10 1.9204e-05)
(-1.91618e-05 4.44188e-07 -2.5257e-08 -1.02965e-08 -1.2207e-09 1.91721e-05)
(-1.91223e-05 4.61498e-07 -2.46705e-08 -1.11375e-08 -1.7056e-09 1.91335e-05)
(-1.90745e-05 4.74967e-07 -2.40271e-08 -1.18265e-08 -2.32029e-09 1.90863e-05)
(-1.90172e-05 4.8455e-07 -2.33142e-08 -1.23454e-08 -3.07553e-09 1.90295e-05)
(-1.89489e-05 4.90079e-07 -2.25053e-08 -1.26739e-08 -4.05554e-09 1.89615e-05)
(-1.88662e-05 4.91275e-07 -2.15956e-08 -1.27909e-08 -5.39225e-09 1.8879e-05)
(-1.87643e-05 4.87988e-07 -2.05924e-08 -1.26875e-08 -7.23831e-09 1.8777e-05)
(-1.86366e-05 4.79998e-07 -1.94602e-08 -1.2357e-08 -9.78848e-09 1.86489e-05)
(-1.84744e-05 4.67134e-07 -1.82221e-08 -1.18016e-08 -1.32159e-08 1.84862e-05)
(-1.82689e-05 4.49442e-07 -1.68859e-08 -1.10391e-08 -1.76445e-08 1.82799e-05)
(-1.80107e-05 4.27208e-07 -1.55058e-08 -1.01026e-08 -2.31228e-08 1.80208e-05)
(-1.76924e-05 4.01085e-07 -1.41335e-08 -9.04199e-09 -2.9591e-08 1.77015e-05)
(-1.7309e-05 3.72016e-07 -1.28441e-08 -7.91586e-09 -3.68859e-08 1.73169e-05)
(-1.68588e-05 3.41279e-07 -1.17226e-08 -6.78905e-09 -4.46706e-08 1.68656e-05)
(-1.63455e-05 3.10331e-07 -1.07652e-08 -5.72231e-09 -5.24508e-08 1.63512e-05)
(-1.5778e-05 2.802e-07 -9.62904e-09 -4.74614e-09 -6.00636e-08 1.57827e-05)
(-1.5163e-05 2.48759e-07 -7.46298e-09 -3.77038e-09 -6.85203e-08 1.51668e-05)
(-1.44903e-05 2.14111e-07 -5.06465e-09 -2.73619e-09 -7.86409e-08 1.44931e-05)
(-1.3752e-05 1.76853e-07 -2.58331e-09 -1.68039e-09 -9.03491e-08 1.37537e-05)
(-1.29423e-05 1.37534e-07 -7.14e-11 -6.31637e-10 -1.03638e-07 1.2943e-05)
(-1.20562e-05 9.69855e-08 2.33598e-09 3.84286e-10 -1.18503e-07 1.20558e-05)
(-1.10901e-05 5.6594e-08 4.37474e-09 1.34581e-09 -1.34654e-07 1.10888e-05)
(-1.00454e-05 1.85085e-08 5.67785e-09 2.24428e-09 -1.51278e-07 1.00431e-05)
(-8.93109e-06 -1.44146e-08 5.85715e-09 3.09738e-09 -1.66906e-07 8.92799e-06)
(-7.76777e-06 -3.90188e-08 4.64299e-09 3.9539e-09 -1.79473e-07 7.76381e-06)
(-6.58824e-06 -5.2674e-08 2.08562e-09 4.87414e-09 -1.86694e-07 6.58337e-06)
(-5.43511e-06 -5.44114e-08 -1.2437e-09 5.88145e-09 -1.86798e-07 5.42923e-06)
(-4.35332e-06 -4.57891e-08 -4.28351e-09 6.91774e-09 -1.79378e-07 4.3464e-06)
(-3.37981e-06 -3.13141e-08 -5.68932e-09 7.86077e-09 -1.65836e-07 3.37195e-06)
(-2.53444e-06 -1.70909e-08 -4.9458e-09 8.63553e-09 -1.48703e-07 2.5258e-06)
(-1.82007e-06 -7.27409e-09 -3.08495e-09 9.30968e-09 -1.30052e-07 1.81076e-06)
(-1.23125e-06 -2.28971e-09 -1.42409e-09 1.00278e-08 -1.10689e-07 1.22123e-06)
(-7.61574e-07 -4.48903e-10 -4.65157e-10 1.09264e-08 -9.05656e-08 7.50648e-07)
(-4.06307e-07 -1.96201e-11 -8.42788e-11 1.21862e-08 -6.93025e-08 3.9412e-07)
(-1.63617e-07 6.80424e-12 -1.42587e-12 1.42683e-08 -4.61623e-08 1.49349e-07)
(-3.76475e-08 3.44842e-13 -3.54332e-13 1.88238e-08 -1.88238e-08 1.88238e-08)
(-0.000680498 6.75048e-07 7.7137e-07 -6.61915e-10 -7.32767e-08 0.000680499)
(-0.000678972 2.00567e-06 7.6953e-07 -5.86287e-09 -2.07206e-07 0.000678978)
(-0.000676305 3.30467e-06 7.44744e-07 -1.6011e-08 -3.07887e-07 0.000676321)
(-0.000672993 4.58084e-06 7.14859e-07 -3.09877e-08 -3.64872e-07 0.000673024)
(-0.000669521 5.83421e-06 6.84868e-07 -5.06327e-08 -3.77891e-07 0.000669571)
(-0.000666272 7.05642e-06 6.58795e-07 -7.45525e-08 -3.54751e-07 0.000666346)
(-0.000663491 8.23385e-06 6.39364e-07 -1.02045e-07 -3.08088e-07 0.000663593)
(-0.000661274 9.35032e-06 6.27941e-07 -1.32123e-07 -2.52399e-07 0.000661406)
(-0.000659593 1.03893e-05 6.24679e-07 -1.63587e-07 -2.0166e-07 0.000659756)
(-0.00065832 1.1336e-05 6.28689e-07 -1.95163e-07 -1.67188e-07 0.000658515)
(-0.000657278 1.21783e-05 6.38481e-07 -2.25613e-07 -1.56172e-07 0.000657503)
(-0.000656276 1.29083e-05 6.52156e-07 -2.53856e-07 -1.70499e-07 0.00065653)
(-0.000655154 1.3522e-05 6.68112e-07 -2.79027e-07 -2.07078e-07 0.000655433)
(-0.000653804 1.40183e-05 6.85457e-07 -3.00478e-07 -2.60435e-07 0.000654104)
(-0.000652168 1.43975e-05 7.04385e-07 -3.17698e-07 -3.26677e-07 0.000652485)
(-0.000650207 1.4659e-05 7.25764e-07 -3.30256e-07 -4.06922e-07 0.000650537)
(-0.000647871 1.47997e-05 7.51207e-07 -3.37702e-07 -5.09996e-07 0.000648208)
(-0.000645046 1.48141e-05 7.80797e-07 -3.39601e-07 -6.49683e-07 0.000645386)
(-0.000641529 1.46983e-05 8.13973e-07 -3.35699e-07 -8.42099e-07 0.000641865)
(-0.000637132 1.44487e-05 8.50747e-07 -3.25802e-07 -1.10778e-06 0.000637458)
(-0.000631566 1.40633e-05 8.87847e-07 -3.09846e-07 -1.46495e-06 0.000631876)
(-0.000624528 1.35453e-05 9.22126e-07 -2.87964e-07 -1.92679e-06 0.000624816)
(-0.000615708 1.29038e-05 9.47882e-07 -2.60456e-07 -2.49858e-06 0.000615968)
(-0.000604853 1.21559e-05 9.59733e-07 -2.27847e-07 -3.17433e-06 0.000605081)
(-0.000591791 1.13244e-05 9.51982e-07 -1.90751e-07 -3.93747e-06 0.000591982)
(-0.00057646 1.04369e-05 9.19399e-07 -1.50047e-07 -4.75352e-06 0.00057661)
(-0.000558964 9.52442e-06 8.64115e-07 -1.07078e-07 -5.57052e-06 0.000559071)
(-0.000539602 8.6135e-06 8.14417e-07 -6.26085e-08 -6.36999e-06 0.000539664)
(-0.000518619 7.67241e-06 8.19872e-07 -1.22672e-08 -7.25785e-06 0.000518631)
(-0.000495655 6.6719e-06 8.38959e-07 4.95403e-08 -8.32126e-06 0.000495606)
(-0.000470454 5.62744e-06 8.59452e-07 1.26262e-07 -9.5515e-06 0.000470328)
(-0.000442839 4.55302e-06 8.79791e-07 2.23588e-07 -1.09485e-05 0.000442615)
(-0.000412647 3.46825e-06 8.92817e-07 3.50196e-07 -1.25131e-05 0.000412297)
(-0.000379768 2.40349e-06 8.8347e-07 5.17319e-07 -1.42165e-05 0.000379251)
(-0.000344235 1.40254e-06 8.30873e-07 7.36906e-07 -1.59746e-05 0.000343499)
(-0.000306339 5.209e-07 7.1382e-07 1.01735e-06 -1.76332e-05 0.000305322)
(-0.000266733 -1.81592e-07 5.20207e-07 1.35625e-06 -1.8972e-05 0.000265377)
(-0.000226483 -6.53037e-07 2.5917e-07 1.73256e-06 -1.9743e-05 0.000224751)
(-0.000187001 -8.66742e-07 -2.92076e-08 2.10525e-06 -1.9748e-05 0.000184896)
(-0.000149757 -8.32286e-07 -2.76034e-07 2.42582e-06 -1.89238e-05 0.000147331)
(-0.000116263 -6.19568e-07 -3.96832e-07 2.67317e-06 -1.74378e-05 0.00011359)
(-8.73255e-05 -3.57286e-07 -3.60363e-07 2.86979e-06 -1.55736e-05 8.44558e-05)
(-6.30506e-05 -1.56529e-07 -2.36159e-07 3.06061e-06 -1.35516e-05 5.999e-05)
(-4.32078e-05 -4.83254e-08 -1.1715e-07 3.27972e-06 -1.14437e-05 3.9928e-05)
(-2.74752e-05 -7.02512e-09 -4.34955e-08 3.53348e-06 -9.19772e-06 2.39417e-05)
(-1.51864e-05 1.97263e-09 -1.03938e-08 3.67182e-06 -6.50226e-06 1.15145e-05)
(-4.89888e-06 7.61659e-10 -7.59891e-10 2.44944e-06 -2.44944e-06 2.44944e-06)
(-1.63617e-07 1.42653e-12 -6.81539e-12 1.49349e-07 -4.61623e-08 1.42683e-08)
(-0.00561435 5.13731e-06 2.03722e-05 -4.50977e-09 -1.05429e-06 0.00561435)
(-0.00560322 1.52059e-05 2.03803e-05 -3.97357e-08 -2.98308e-06 0.00560326)
(-0.00558376 2.49304e-05 2.01682e-05 -1.07921e-07 -4.43954e-06 0.00558387)
(-0.00555957 3.43697e-05 1.9912e-05 -2.07703e-07 -5.27504e-06 0.00555977)
(-0.00553413 4.35057e-05 1.9656e-05 -3.3688e-07 -5.48473e-06 0.00553447)
(-0.00551024 5.22905e-05 1.94368e-05 -4.91695e-07 -5.1788e-06 0.00551073)
(-0.00548965 6.06488e-05 1.92815e-05 -6.66635e-07 -4.53638e-06 0.00549031)
(-0.00547307 6.84914e-05 1.92055e-05 -8.54851e-07 -3.76385e-06 0.00547392)
(-0.00546027 7.57258e-05 1.92137e-05 -1.04878e-06 -3.06069e-06 0.00546132)
(-0.00545032 8.22677e-05 1.93008e-05 -1.24079e-06 -2.5888e-06 0.00545156)
(-0.00544192 8.80478e-05 1.94549e-05 -1.42373e-06 -2.45148e-06 0.00544335)
(-0.00543367 9.30177e-05 1.96592e-05 -1.59134e-06 -2.6766e-06 0.00543526)
(-0.00542437 9.71523e-05 1.98987e-05 -1.73852e-06 -3.22092e-06 0.00542611)
(-0.00541321 0.000100446 2.01655e-05 -1.86142e-06 -4.00718e-06 0.00541507)
(-0.0053997 0.000102903 2.04627e-05 -1.95715e-06 -4.98024e-06 0.00540166)
(-0.00538351 0.00010453 2.08015e-05 -2.02348e-06 -6.15635e-06 0.00538554)
(-0.00536419 0.000105324 2.12007e-05 -2.05823e-06 -7.66148e-06 0.00536625)
(-0.00534089 0.000105281 2.16629e-05 -2.05925e-06 -9.6912e-06 0.00534295)
(-0.00531346 0.000104414 2.21754e-05 -2.02452e-06 -1.24798e-05 0.00531548)
(-0.00527933 0.000102695 2.27476e-05 -1.94987e-06 -1.63219e-05 0.00528128)
(-0.00523629 0.000100138 2.33435e-05 -1.83056e-06 -2.14802e-05 0.00523812)
(-0.00518206 9.67809e-05 2.39247e-05 -1.65943e-06 -2.81489e-05 0.00518372)
(-0.00511427 9.26819e-05 2.44232e-05 -1.42668e-06 -3.64116e-05 0.0051157)
(-0.00503099 8.79354e-05 2.47716e-05 -1.12087e-06 -4.61926e-05 0.00503211)
(-0.00493081 8.26386e-05 2.48999e-05 -7.29435e-07 -5.72758e-05 0.00493154)
(-0.00481303 7.68776e-05 2.47373e-05 -2.44234e-07 -6.92062e-05 0.00481327)
(-0.00467797 7.07585e-05 2.42696e-05 3.29071e-07 -8.12731e-05 0.00467764)
(-0.00452747 6.44935e-05 2.37301e-05 9.86545e-07 -9.32031e-05 0.00452648)
(-0.00436339 5.81144e-05 2.35853e-05 1.81128e-06 -0.000106499 0.00436158)
(-0.00418271 5.16299e-05 2.34482e-05 2.931e-06 -0.00012241 0.00417978)
(-0.00398348 4.51529e-05 2.31953e-05 4.45467e-06 -0.000140833 0.00397903)
(-0.00376429 3.87423e-05 2.28032e-05 6.55e-06 -0.000161817 0.00375774)
(-0.00352373 3.24488e-05 2.21812e-05 9.46571e-06 -0.000185439 0.00351426)
(-0.00326067 2.63314e-05 2.11537e-05 1.35219e-05 -0.000211346 0.00324715)
(-0.00297494 2.04521e-05 1.94841e-05 1.90634e-05 -0.000238384 0.00295588)
(-0.00266813 1.48784e-05 1.69325e-05 2.63469e-05 -0.000264334 0.00264178)
(-0.00234441 9.7058e-06 1.33553e-05 3.53455e-05 -0.000285906 0.00230907)
(-0.0020112 5.10883e-06 8.84474e-06 4.55241e-05 -0.000299207 0.00196567)
(-0.00167927 1.38802e-06 3.85349e-06 5.5769e-05 -0.000300896 0.0016235)
(-0.00136346 -9.35203e-07 -7.88416e-07 6.48027e-05 -0.000290078 0.00129866)
(-0.00107359 -1.53326e-06 -3.80499e-06 7.17597e-05 -0.000268118 0.00100183)
(-0.000818659 -9.48162e-07 -4.35879e-06 7.70427e-05 -0.000239035 0.000741616)
(-0.000601913 -1.81878e-07 -3.18208e-06 8.16001e-05 -0.000206055 0.000520313)
(-0.000419717 2.17098e-07 -1.67875e-06 8.50639e-05 -0.000168722 0.000334653)
(-0.000259621 2.49274e-07 -6.17794e-07 8.18022e-05 -0.000120607 0.000177819)
(-0.000108099 1.08044e-07 -1.07934e-07 5.40497e-05 -5.40497e-05 5.40496e-05)
(-1.51863e-05 1.04025e-08 -1.96172e-09 1.15145e-05 -6.50225e-06 3.67182e-06)
(-4.06306e-07 8.43434e-11 1.96983e-11 3.9412e-07 -6.93024e-08 1.21862e-08)
(-0.0191393 1.59088e-05 -7.2184e-05 -1.18042e-08 -5.15203e-06 0.0191393)
(-0.0191122 4.69289e-05 -7.23701e-05 -1.03861e-07 -1.45629e-05 0.0191123)
(-0.0190646 7.65053e-05 -7.18768e-05 -2.81811e-07 -2.16282e-05 0.0190649)
(-0.0190056 0.000104721 -7.12557e-05 -5.41465e-07 -2.55999e-05 0.0190061)
(-0.0189435 0.000131484 -7.05327e-05 -8.74296e-07 -2.64491e-05 0.0189444)
(-0.0188854 0.00015671 -6.9713e-05 -1.26648e-06 -2.47224e-05 0.0188867)
(-0.0188355 0.000180289 -6.87818e-05 -1.70004e-06 -2.13169e-05 0.0188372)
(-0.0187955 0.000202086 -6.77079e-05 -2.15556e-06 -1.72739e-05 0.0187977)
(-0.0187649 0.000221961 -6.64526e-05 -2.61444e-06 -1.3604e-05 0.0187675)
(-0.0187414 0.000239775 -6.49798e-05 -3.06002e-06 -1.1131e-05 0.0187444)
(-0.0187215 0.000255404 -6.32581e-05 -3.47753e-06 -1.03851e-05 0.018725)
(-0.0187019 0.000268752 -6.12686e-05 -3.85383e-06 -1.1518e-05 0.0187057)
(-0.0186792 0.000279762 -5.89928e-05 -4.17763e-06 -1.4326e-05 0.0186834)
(-0.0186514 0.000288422 -5.63991e-05 -4.44008e-06 -1.84356e-05 0.0186559)
(-0.018617 0.000294761 -5.34301e-05 -4.63485e-06 -2.35839e-05 0.0186216)
(-0.0185748 0.000298852 -5.00049e-05 -4.75755e-06 -2.98688e-05 0.0185796)
(-0.0185235 0.000300788 -4.60143e-05 -4.80339e-06 -3.79402e-05 0.0185283)
(-0.0184607 0.000300708 -4.14119e-05 -4.76552e-06 -4.88122e-05 0.0184655)
(-0.0183875 0.000298725 -3.62284e-05 -4.62846e-06 -6.36678e-05 0.0183922)
(-0.0182959 0.000294825 -3.02912e-05 -4.36061e-06 -8.39994e-05 0.0183003)
(-0.01818 0.000289194 -2.36265e-05 -3.91547e-06 -0.000111193 0.0181839)
(-0.0180337 0.00028199 -1.62703e-05 -3.21826e-06 -0.000146303 0.018037)
(-0.0178508 0.000273363 -8.37554e-06 -2.16432e-06 -0.000189848 0.017853)
(-0.0176257 0.00026347 -1.07652e-07 -6.27254e-07 -0.000241572 0.0176263)
(-0.0173541 0.000252333 8.34787e-06 1.53435e-06 -0.000300601 0.0173526)
(-0.017033 0.000239726 1.67551e-05 4.44251e-06 -0.000365067 0.0170286)
(-0.0166608 0.000225327 2.48594e-05 8.14049e-06 -0.000431969 0.0166527)
(-0.0162388 0.000209619 3.27696e-05 1.26877e-05 -0.000500192 0.0162261)
(-0.0157697 0.000194132 4.13284e-05 1.87134e-05 -0.000577022 0.0157509)
(-0.0152444 0.000180292 4.9989e-05 2.72133e-05 -0.000668808 0.0152172)
(-0.0146567 0.000168212 5.85647e-05 3.91631e-05 -0.000775671 0.0146175)
(-0.0140009 0.000157834 6.69259e-05 5.60422e-05 -0.000898657 0.0139449)
(-0.0132708 0.000148874 7.45988e-05 8.00337e-05 -0.00103893 0.0131908)
(-0.0124606 0.000140674 8.07518e-05 0.000114 -0.0011955 0.0123466)
(-0.011566 0.000131995 8.42494e-05 0.000161187 -0.00136313 0.0114048)
(-0.0105866 0.000121023 8.37541e-05 0.000224401 -0.00153058 0.0103622)
(-0.00952737 0.00010576 7.78683e-05 0.000304439 -0.0016798 0.00922293)
(-0.00840111 8.49392e-05 6.5395e-05 0.000397971 -0.00178726 0.00800314)
(-0.00723169 5.92588e-05 4.58296e-05 0.000496121 -0.00182918 0.00673557)
(-0.00606063 3.38466e-05 2.01686e-05 0.000586342 -0.00179176 0.00547429)
(-0.00492195 1.61429e-05 -4.5136e-06 0.000657063 -0.00167385 0.00426488)
(-0.0038555 8.49566e-06 -1.72504e-05 0.000705474 -0.00149064 0.00315003)
(-0.00286709 6.5226e-06 -1.62378e-05 0.000725912 -0.00124671 0.00214118)
(-0.00190947 5.14687e-06 -8.93527e-06 0.000678479 -0.000913892 0.00123099)
(-0.000959292 2.66318e-06 -2.6617e-06 0.000479646 -0.000479646 0.000479646)
(-0.000259621 6.18097e-07 -2.48921e-07 0.000177819 -0.000120607 8.1802e-05)
(-2.74751e-05 4.35147e-08 7.05344e-09 2.39417e-05 -9.1977e-06 3.53347e-06)
(-7.61574e-07 4.65347e-10 4.49309e-10 7.50647e-07 -9.05654e-08 1.09264e-08)
(-0.0352407 2.55435e-05 -0.00033165 -1.35089e-08 -1.30401e-05 0.0352407)
(-0.0352131 7.53667e-05 -0.000333849 -1.21246e-07 -3.68424e-05 0.0352132)
(-0.0351651 0.000122268 -0.000334395 -3.36459e-07 -5.46742e-05 0.0351654)
(-0.035106 0.000165852 -0.000334931 -6.58609e-07 -6.46415e-05 0.0351067)
(-0.0350449 0.000206072 -0.000335114 -1.0773e-06 -6.66722e-05 0.0350459)
(-0.0349889 0.000242915 -0.000334647 -1.56766e-06 -6.21553e-05 0.0349904)
(-0.0349426 0.000276436 -0.000333311 -2.09713e-06 -5.3386e-05 0.0349447)
(-0.0349077 0.000306702 -0.000330986 -2.63424e-06 -4.30405e-05 0.0349103)
(-0.0348835 0.000333763 -0.000327638 -3.15447e-06 -3.37212e-05 0.0348867)
(-0.0348674 0.000357633 -0.000323315 -3.64084e-06 -2.75543e-05 0.034871)
(-0.0348556 0.000378284 -0.000318115 -4.08064e-06 -2.59152e-05 0.0348597)
(-0.0348441 0.000395666 -0.00031217 -4.46196e-06 -2.92264e-05 0.0348486)
(-0.0348294 0.00040974 -0.000305603 -4.77269e-06 -3.7027e-05 0.0348342)
(-0.0348085 0.000420522 -0.000298489 -5.00225e-06 -4.84423e-05 0.0348135)
(-0.0347794 0.000428121 -0.000290821 -5.14259e-06 -6.28921e-05 0.0347845)
(-0.03474 0.000432764 -0.000282543 -5.18622e-06 -8.07207e-05 0.0347452)
(-0.0346882 0.000434778 -0.000273548 -5.11791e-06 -0.000103682 0.0346933)
(-0.0346214 0.000434605 -0.000263809 -4.90594e-06 -0.000134499 0.0346263)
(-0.0345411 0.000432565 -0.000253119 -4.48456e-06 -0.000176149 0.0345456)
(-0.0344371 0.000428835 -0.000241702 -3.72858e-06 -0.000232409 0.0344408)
(-0.0343024 0.000423923 -0.000229825 -2.43718e-06 -0.000307016 0.0343049)
(-0.0341302 0.000418186 -0.000217666 -3.01502e-07 -0.000402874 0.0341305)
(-0.0339127 0.000411867 -0.000205644 3.10233e-06 -0.000521599 0.0339096)
(-0.0336432 0.000405125 -0.000194017 8.28393e-06 -0.000662925 0.0336349)
(-0.0333163 0.000397731 -0.000182785 1.58183e-05 -0.000825311 0.0333005)
(-0.0329272 0.000388637 -0.000171794 2.62736e-05 -0.00100556 0.0329009)
(-0.0324704 0.000375376 -0.000160989 4.01267e-05 -0.00119896 0.0324303)
(-0.0319387 0.000355851 -0.000148186 5.81122e-05 -0.00140507 0.0318806)
(-0.0313227 0.000338264 -0.000122876 8.26324e-05 -0.00164037 0.03124)
(-0.0306171 0.000331881 -9.67171e-05 0.000117435 -0.00192011 0.0304996)
(-0.0298131 0.000334359 -6.97487e-05 0.000166869 -0.00224807 0.0296463)
(-0.0289005 0.000345235 -4.23494e-05 0.000237346 -0.00263011 0.0286632)
(-0.0278684 0.000363671 -1.52046e-05 0.00033817 -0.00307213 0.0275302)
(-0.0267064 0.000387304 1.11192e-05 0.000481689 -0.00357482 0.0262247)
(-0.0254053 0.000411196 3.65353e-05 0.000682591 -0.00412847 0.0247228)
(-0.0239564 0.000427308 6.14323e-05 0.000955429 -0.0047076 0.023001)
(-0.022349 0.000424984 8.57875e-05 0.00130932 -0.0052664 0.0210397)
(-0.0205684 0.000392949 0.000106996 0.00173962 -0.00573735 0.0188288)
(-0.0185943 0.000322285 0.000116229 0.00221819 -0.00603593 0.0163761)
(-0.0164045 0.000221642 9.30906e-05 0.00268573 -0.00607342 0.0137187)
(-0.0139591 0.000123995 3.23034e-05 0.00305844 -0.00577423 0.0109007)
(-0.0112457 6.16243e-05 -2.36032e-05 0.003252 -0.00509833 0.0079937)
(-0.00819121 3.52165e-05 -3.85154e-05 0.00311942 -0.00397753 0.00507179)
(-0.00482995 2.20066e-05 -2.19976e-05 0.00241498 -0.00241498 0.00241497)
(-0.00190946 8.93835e-06 -5.14344e-06 0.00123099 -0.000913891 0.000678477)
(-0.000419716 1.67927e-06 -2.16417e-07 0.000334653 -0.000168722 8.50636e-05)
(-4.32077e-05 1.17183e-07 4.83829e-08 3.9928e-05 -1.14437e-05 3.27971e-06)
(-1.23125e-06 1.42445e-09 2.29085e-09 1.22123e-06 -1.10689e-07 1.00278e-08)
(-0.0451841 2.63483e-05 3.84473e-05 -3.86532e-09 -2.28102e-05 0.0451841)
(-0.0451685 7.77261e-05 3.64613e-05 -4.19723e-08 -6.44395e-05 0.0451685)
(-0.0451425 0.000125376 3.26307e-05 -1.45826e-07 -9.56664e-05 0.0451427)
(-0.0451122 0.000168322 2.82518e-05 -3.44086e-07 -0.00011328 0.0451125)
(-0.0450832 0.000206617 2.43257e-05 -6.42885e-07 -0.000117187 0.0450839)
(-0.0450603 0.000240342 2.16838e-05 -1.01487e-06 -0.000109817 0.0450613)
(-0.0450463 0.00026976 2.0903e-05 -1.41492e-06 -9.51703e-05 0.0450477)
(-0.0450419 0.000295188 2.22664e-05 -1.80024e-06 -7.79081e-05 0.0450437)
(-0.0450464 0.000316921 2.57989e-05 -2.14312e-06 -6.2557e-05 0.0450485)
(-0.0450577 0.000335182 3.13077e-05 -2.43164e-06 -5.2815e-05 0.0450601)
(-0.0450731 0.0003501 3.84575e-05 -2.66147e-06 -5.10868e-05 0.0450757)
(-0.0450895 0.00036175 4.68186e-05 -2.82723e-06 -5.81805e-05 0.0450924)
(-0.0451042 0.000370199 5.59694e-05 -2.91903e-06 -7.34591e-05 0.0451071)
(-0.0451143 0.000375571 6.55685e-05 -2.92446e-06 -9.56392e-05 0.0451172)
(-0.0451173 0.000378088 7.54249e-05 -2.82897e-06 -0.000123978 0.0451202)
(-0.0451107 0.000378102 8.54449e-05 -2.60846e-06 -0.000159321 0.0451133)
(-0.0450917 0.000375987 9.56325e-05 -2.20718e-06 -0.00020489 0.0450939)
(-0.0450578 0.000372118 0.000105894 -1.51318e-06 -0.000265514 0.0450593)
(-0.0450107 0.000367062 0.00011651 -3.36355e-07 -0.000346265 0.0450111)
(-0.0449412 0.000361165 0.00012669 1.66487e-06 -0.000453558 0.0449395)
(-0.0448439 0.000354783 0.000135629 5.04501e-06 -0.00059394 0.0448388)
(-0.0447138 0.000348138 0.000142778 1.06182e-05 -0.000772575 0.0447032)
(-0.0445456 0.000341282 0.000147116 1.94759e-05 -0.000992518 0.0445261)
(-0.0443344 0.000334222 0.000148039 3.29178e-05 -0.00125377 0.0443015)
(-0.0440769 0.00032667 0.000145727 5.24165e-05 -0.0015546 0.0440245)
(-0.0437699 0.000317609 0.000141188 7.9554e-05 -0.00189198 0.0436904)
(-0.043408 0.000303448 0.00013518 0.000116149 -0.00226351 0.0432919)
(-0.0429812 0.000278263 0.000124681 0.000165385 -0.0026758 0.0428158)
(-0.0424764 0.000260204 0.000106266 0.000233296 -0.00314981 0.0422431)
(-0.0418906 0.000263164 8.64105e-05 0.000328911 -0.00370628 0.0415617)
(-0.0412199 0.000281439 6.58015e-05 0.000464347 -0.00435885 0.0407556)
(-0.0404589 0.000313732 4.49615e-05 0.00065659 -0.00512115 0.0398023)
(-0.0396056 0.000358912 2.59658e-05 0.00092935 -0.00600539 0.0386762)
(-0.0386624 0.000414234 1.28165e-05 0.00131353 -0.00701573 0.0373488)
(-0.0376339 0.000474636 1.1086e-05 0.00184595 -0.00814103 0.0357879)
(-0.0365197 0.000532747 2.65619e-05 0.00256493 -0.00934678 0.0339548)
(-0.0353011 0.000579008 6.26693e-05 0.00350053 -0.0105661 0.0318006)
(-0.0339212 0.000600195 0.000117145 0.0046584 -0.0116907 0.0292628)
(-0.0322551 0.000566472 0.000177602 0.00599487 -0.0125598 0.0262602)
(-0.0300425 0.000453034 0.000192861 0.0073634 -0.0129301 0.0226791)
(-0.0268013 0.000283647 0.000107502 0.00845103 -0.0124549 0.0183502)
(-0.0220196 0.000138074 -2.00087e-05 0.00878223 -0.0107821 0.0132374)
(-0.0154606 6.53596e-05 -6.53295e-05 0.00773029 -0.00773029 0.00773028)
(-0.0081912 3.85306e-05 -3.52001e-05 0.00507179 -0.00397752 0.00311941)
(-0.00286709 1.62424e-05 -6.51695e-06 0.00214118 -0.00124671 0.00072591)
(-0.000601912 3.18283e-06 1.8299e-07 0.000520312 -0.000206055 8.15999e-05)
(-6.30505e-05 2.36209e-07 1.56632e-07 5.99899e-05 -1.35516e-05 3.0606e-06)
(-1.82007e-06 3.08553e-09 7.27657e-09 1.81076e-06 -1.30051e-07 9.30963e-09)
(-0.0480468 2.01654e-05 0.00025081 1.2148e-08 -3.15711e-05 0.0480468)
(-0.0480467 5.88453e-05 0.000253224 9.16994e-08 -8.90076e-05 0.0480466)
(-0.0480466 9.36876e-05 0.000252442 1.76343e-07 -0.000131823 0.0480464)
(-0.0480464 0.000124029 0.000251708 1.8031e-07 -0.000155712 0.0480463)
(-0.0480463 0.000149628 0.000251314 6.55242e-08 -0.000160583 0.0480462)
(-0.0480462 0.000170557 0.000251562 -1.43292e-07 -0.00014991 0.0480463)
(-0.048046 0.000187116 0.00025273 -3.85699e-07 -0.000129357 0.0480464)
(-0.0480459 0.000199682 0.000255071 -6.02646e-07 -0.000105501 0.0480465)
(-0.0480458 0.000208622 0.000258776 -7.59898e-07 -8.47019e-05 0.0480465)
(-0.0480456 0.000214243 0.000263952 -8.494e-07 -7.21387e-05 0.0480465)
(-0.0480455 0.000216777 0.000270622 -8.74324e-07 -7.11949e-05 0.0480464)
(-0.0480454 0.000216413 0.000278704 -8.32636e-07 -8.31256e-05 0.0480462)
(-0.0480453 0.000213343 0.000288094 -7.09682e-07 -0.000107326 0.048046)
(-0.0480451 0.000207785 0.000298736 -4.79328e-07 -0.000142425 0.0480456)
(-0.0480449 0.000199997 0.000310706 -1.01903e-07 -0.000187848 0.048045)
(-0.0480447 0.000190291 0.000324228 4.92766e-07 -0.000245165 0.0480442)
(-0.0480444 0.000178808 0.000339714 1.44816e-06 -0.000319047 0.0480429)
(-0.0480439 0.000165502 0.000357276 3.0295e-06 -0.00041615 0.0480409)
(-0.0480434 0.000150934 0.000376819 5.67281e-06 -0.000543613 0.0480377)
(-0.0480427 0.000135267 0.000398917 1.01238e-05 -0.000710458 0.0480326)
(-0.0480418 0.000118204 0.000423256 1.7555e-05 -0.000925822 0.0480243)
(-0.0480408 9.93159e-05 0.000449808 2.96556e-05 -0.00119735 0.0480111)
(-0.0480396 7.79257e-05 0.000477852 4.8673e-05 -0.00153026 0.0479909)
(-0.0480383 5.34717e-05 0.000506963 7.73122e-05 -0.00192614 0.0479609)
(-0.0480367 2.55695e-05 0.000537458 0.000118736 -0.002385 0.0479179)
(-0.0480348 -5.3078e-06 0.000570735 0.000176645 -0.00290682 0.0478581)
(-0.0480324 -3.72899e-05 0.000608123 0.000255719 -0.00349435 0.0477766)
(-0.0479776 -7.0131e-05 0.000635181 0.000363027 -0.00415639 0.0476146)
(-0.047576 -9.81373e-05 0.000595039 0.000508754 -0.00489224 0.0470672)
(-0.0471288 -0.000127016 0.000550835 0.000712665 -0.00575031 0.0464162)
(-0.0466448 -0.000155023 0.000506919 0.000997595 -0.00674703 0.0456472)
(-0.0461371 -0.000182597 0.000464078 0.00139511 -0.00789952 0.044742)
(-0.0456277 -0.000209071 0.000425263 0.00194683 -0.00922055 0.0436809)
(-0.0451456 -0.000231708 0.000395255 0.00270443 -0.0107123 0.0424412)
(-0.0447185 -0.000244274 0.000379486 0.00372706 -0.0123588 0.0409915)
(-0.0443585 -0.000236603 0.000382782 0.00507487 -0.0141177 0.0392837)
(-0.0440378 -0.000196183 0.00040827 0.00679563 -0.0159068 0.0372422)
(-0.0436515 -0.000111168 0.000455995 0.00889996 -0.0175857 0.0347515)
(-0.0429652 -8.30125e-06 0.000520106 0.0113199 -0.0189282 0.0316454)
(-0.0415205 4.98411e-05 0.000503093 0.0138203 -0.0195687 0.0277002)
(-0.0382926 9.00089e-05 0.000246438 0.0157458 -0.018843 0.0225468)
(-0.031893 4.97954e-05 -4.97395e-05 0.0159465 -0.0159465 0.0159465)
(-0.0220196 2.00492e-05 -0.000138032 0.0132374 -0.0107821 0.0087822)
(-0.0112457 2.36234e-05 -6.16012e-05 0.00799369 -0.00509832 0.00325199)
(-0.0038555 1.72565e-05 -8.48759e-06 0.00315002 -0.00149064 0.000705472)
(-0.000818658 4.35981e-06 9.4984e-07 0.000741615 -0.000239034 7.70425e-05)
(-8.73254e-05 3.60432e-07 3.57455e-07 8.44556e-05 -1.55736e-05 2.86978e-06)
(-2.53444e-06 4.94661e-09 1.70955e-08 2.5258e-06 -1.48703e-07 8.63544e-09)
(-0.0480477 1.1892e-05 -0.000182784 2.93012e-08 -3.93104e-05 0.0480476)
(-0.0480477 3.38886e-05 -0.000181599 2.30898e-07 -0.000110498 0.0480474)
(-0.0480476 5.23676e-05 -0.000181137 4.97607e-07 -0.000163023 0.0480471)
(-0.0480476 6.70207e-05 -0.000180225 6.73903e-07 -0.000191738 0.0480469)
(-0.0480476 7.73112e-05 -0.000178603 6.83142e-07 -0.000196673 0.0480469)
(-0.0480476 8.32614e-05 -0.000175988 5.50576e-07 -0.000182411 0.0480471)
(-0.0480477 8.51377e-05 -0.000172111 3.59358e-07 -0.000156263 0.0480473)
(-0.0480478 8.33036e-05 -0.000166714 1.91124e-07 -0.000126626 0.0480477)
(-0.048048 7.81227e-05 -0.000159594 8.97739e-08 -0.000101569 0.048048)
(-0.0480483 6.99253e-05 -0.000150639 6.10008e-08 -8.76519e-05 0.0480482)
(-0.0480486 5.89778e-05 -0.000139824 9.73857e-08 -8.92228e-05 0.0480485)
(-0.0480488 4.54906e-05 -0.000127249 2.05766e-07 -0.000108102 0.0480486)
(-0.0480491 2.96406e-05 -0.000113049 4.20447e-07 -0.000143971 0.0480487)
(-0.0480494 1.15781e-05 -9.7304e-05 8.03693e-07 -0.000195703 0.0480486)
(-0.0480496 -8.58608e-06 -7.99527e-05 1.4521e-06 -0.000263176 0.0480482)
(-0.0480498 -3.07138e-05 -6.07363e-05 2.52897e-06 -0.000348809 0.0480473)
(-0.0480499 -5.49206e-05 -3.912e-05 4.3371e-06 -0.000458587 0.0480456)
(-0.0480499 -8.14774e-05 -1.4986e-05 7.40361e-06 -0.000600653 0.0480425)
(-0.0480498 -0.00011004 1.16399e-05 1.25885e-05 -0.000783961 0.0480372)
(-0.0480495 -0.000140833 4.15294e-05 2.12955e-05 -0.00101951 0.0480282)
(-0.048049 -0.000174396 7.43935e-05 3.56447e-05 -0.00131802 0.0480134)
(-0.0480482 -0.000211499 0.000110449 5.86205e-05 -0.00168856 0.0479896)
(-0.0480471 -0.000253203 0.000148916 9.41248e-05 -0.00213731 0.047953)
(-0.0480455 -0.000300158 0.000189263 0.00014683 -0.00266628 0.0478987)
(-0.0480435 -0.000352411 0.000231468 0.000222256 -0.00327595 0.0478213)
(-0.0480409 -0.000407946 0.000275978 0.000327134 -0.00396781 0.0477138)
(-0.0480378 -0.000459447 0.000323587 0.000470328 -0.00474723 0.0475675)
(-0.0480343 -0.000499475 0.000374229 0.000664529 -0.00562708 0.0473698)
(-0.0480306 -0.000552945 0.000418575 0.000930684 -0.00663713 0.0471)
(-0.0480261 -0.000638781 0.000461498 0.00129717 -0.00780289 0.0467289)
(-0.0480201 -0.00074399 0.000504655 0.00179855 -0.00913618 0.0462216)
(-0.0480127 -0.000861658 0.000544501 0.00247879 -0.0106433 0.0455339)
(-0.048004 -0.000982288 0.000576859 0.0033898 -0.0123168 0.0446142)
(-0.0479946 -0.00109101 0.000598133 0.00458828 -0.0141296 0.0434063)
(-0.0479855 -0.00116774 0.000607044 0.00613065 -0.016032 0.0418548)
(-0.0479781 -0.00119136 0.00060752 0.00806642 -0.0179506 0.0399117)
(-0.0479733 -0.00114663 0.000611671 0.010431 -0.0197911 0.0375423)
(-0.0479708 -0.00102065 0.000641327 0.0132371 -0.0214399 0.0347336)
(-0.0479667 -0.000833403 0.000745086 0.0164596 -0.0227694 0.0315071)
(-0.0479587 -0.000774312 0.000904056 0.0200582 -0.0236558 0.0279005)
(-0.0452728 -0.000551628 0.000551701 0.0226364 -0.0226364 0.0226364)
(-0.0382926 -0.000246372 -8.99483e-05 0.0225468 -0.018843 0.0157458)
(-0.0268012 -0.000107455 -0.000283598 0.0183502 -0.0124549 0.008451)
(-0.0139591 -3.22792e-05 -0.000123966 0.0109006 -0.00577421 0.00305843)
(-0.00492194 4.52121e-06 -1.61322e-05 0.00426488 -0.00167385 0.000657061)
(-0.00107358 3.80628e-06 1.53566e-06 0.00100182 -0.000268117 7.17596e-05)
(-0.000116263 3.96921e-07 6.19829e-07 0.00011359 -1.74377e-05 2.67316e-06)
(-3.37981e-06 5.69039e-09 3.13217e-08 3.37195e-06 -1.65836e-07 7.86061e-09)
(-0.0480445 2.90783e-06 -0.000311232 4.6834e-08 -4.74932e-05 0.0480445)
(-0.0480445 7.53624e-06 -0.00031286 3.68995e-07 -0.000133272 0.0480441)
(-0.0480445 9.4666e-06 -0.000313441 7.99633e-07 -0.000196116 0.0480437)
(-0.0480445 8.09423e-06 -0.000313537 1.10057e-06 -0.000229987 0.0480434)
(-0.0480445 2.88172e-06 -0.000312377 1.15169e-06 -0.0002352 0.0480434)
(-0.0480447 -6.26948e-06 -0.000309287 9.84347e-07 -0.000217598 0.0480437)
(-0.0480449 -1.92044e-05 -0.000303747 7.13839e-07 -0.000186296 0.0480442)
(-0.0480452 -3.56411e-05 -0.000295417 4.51746e-07 -0.000151657 0.0480447)
(-0.0480456 -5.52712e-05 -0.000284155 2.55162e-07 -0.000123587 0.0480453)
(-0.048046 -7.77883e-05 -0.00027002 1.29717e-07 -0.000110157 0.0480459)
(-0.0480465 -0.000102948 -0.000253226 6.92805e-08 -0.000116838 0.0480464)
(-0.048047 -0.000130594 -0.000234151 9.82646e-08 -0.000146218 0.0480469)