/*--------------------------------*- C++ -*----------------------------------*\
| =========                 |                                                 |
| \\      /  F ield         | OpenFOAM: The Open Source CFD Toolbox           |
|  \\    /   O peration     | Version:  2412                                  |
|   \\  /    A nd           | Website:  www.openfoam.com                      |
|    \\/     M anipulation  |                                                 |
\*---------------------------------------------------------------------------*/
FoamFile
{
    version     2.0;
    format      ascii;
    arch        "LSB;label=32;scalar=64";
    class       volSymmTensorField;
    location    "2130";
    object      Tij3;
}
// * * * * * * * * * * * * * * * * * * * * * * * * * * * * * * * * * * * * * //

dimensions      [0 0 0 0 0 0 0];

internalField   nonuniform List<symmTensor> 
2304
(
(9.95364e-06 -1.0599e-08 7.04411e-09 1.76073e-11 -3.50205e-10 9.95367e-06)
(9.93115e-06 -3.15571e-08 7.24776e-09 1.06857e-10 -9.91401e-10 9.93128e-06)
(9.89188e-06 -5.21851e-08 7.3451e-09 2.82322e-10 -1.47515e-09 9.89217e-06)
(9.84311e-06 -7.26727e-08 7.45422e-09 5.44033e-10 -1.75181e-09 9.84367e-06)
(9.79199e-06 -9.30319e-08 7.53811e-09 8.91738e-10 -1.82003e-09 9.7929e-06)
(9.74419e-06 -1.13103e-07 7.56412e-09 1.32089e-09 -1.71627e-09 9.74552e-06)
(9.70328e-06 -1.32621e-07 7.51024e-09 1.82071e-09 -1.49986e-09 9.70511e-06)
(9.6707e-06 -1.51272e-07 7.36611e-09 2.3742e-09 -1.23892e-09 9.67309e-06)
(9.64599e-06 -1.6874e-07 7.13072e-09 2.95944e-09 -9.99257e-10 9.64896e-06)
(9.6273e-06 -1.84743e-07 6.81249e-09 3.55227e-09 -8.34283e-10 9.63087e-06)
(9.61201e-06 -1.99058e-07 6.42382e-09 4.1289e-09 -7.78029e-10 9.61615e-06)
(9.59732e-06 -2.11537e-07 5.9813e-09 4.66846e-09 -8.39628e-10 9.602e-06)
(9.5809e-06 -2.22112e-07 5.49727e-09 5.1544e-09 -1.00467e-09 9.58606e-06)
(9.56116e-06 -2.3077e-07 4.9778e-09 5.57437e-09 -1.24746e-09 9.56674e-06)
(9.53725e-06 -2.37506e-07 4.41609e-09 5.91836e-09 -1.54961e-09 9.54317e-06)
(9.5086e-06 -2.42301e-07 3.80141e-09 6.17734e-09 -1.9165e-09 9.51478e-06)
(9.47443e-06 -2.4507e-07 3.11054e-09 6.3412e-09 -2.38977e-09 9.48078e-06)
(9.43308e-06 -2.45671e-07 2.34522e-09 6.39952e-09 -3.0356e-09 9.43949e-06)
(9.38213e-06 -2.44032e-07 1.52182e-09 6.34821e-09 -3.93129e-09 9.38848e-06)
(9.31828e-06 -2.40042e-07 6.16411e-10 6.18447e-09 -5.1738e-09 9.32446e-06)
(9.23722e-06 -2.33616e-07 -3.34083e-10 5.91024e-09 -6.85149e-09 9.24312e-06)
(9.13444e-06 -2.24775e-07 -1.30884e-09 5.53588e-09 -9.02757e-09 9.13996e-06)
(9.00535e-06 -2.13662e-07 -2.24296e-09 5.07964e-09 -1.17289e-08 9.0104e-06)
(8.84622e-06 -2.00603e-07 -3.07833e-09 4.56867e-09 -1.49277e-08 8.85074e-06)
(8.65451e-06 -1.86069e-07 -3.73931e-09 4.03437e-09 -1.85447e-08 8.65847e-06)
(8.42942e-06 -1.70697e-07 -4.14655e-09 3.51054e-09 -2.24134e-08 8.43282e-06)
(8.17274e-06 -1.55223e-07 -4.31792e-09 3.02725e-09 -2.62859e-08 8.1756e-06)
(7.889e-06 -1.40191e-07 -4.61418e-09 2.60068e-09 -3.00747e-08 7.89137e-06)
(7.58151e-06 -1.24508e-07 -5.89617e-09 2.19446e-09 -3.42674e-08 7.58339e-06)
(7.24517e-06 -1.07195e-07 -7.35954e-09 1.79443e-09 -3.92957e-08 7.24654e-06)
(6.87601e-06 -8.85794e-08 -8.85973e-09 1.43375e-09 -4.51249e-08 6.87685e-06)
(6.47117e-06 -6.89312e-08 -1.03558e-08 1.14672e-09 -5.1755e-08 6.47149e-06)
(6.02808e-06 -4.86609e-08 -1.17293e-08 9.75401e-10 -5.91866e-08 6.0279e-06)
(5.54506e-06 -2.84526e-08 -1.27391e-08 9.67178e-10 -6.72775e-08 5.5444e-06)
(5.02268e-06 -9.37147e-09 -1.30455e-08 1.16375e-09 -7.56197e-08 5.02157e-06)
(4.46555e-06 7.1631e-09 -1.22849e-08 1.58009e-09 -8.34699e-08 4.46401e-06)
(3.88388e-06 1.95748e-08 -1.01969e-08 2.17967e-09 -8.97786e-08 3.88192e-06)
(3.29412e-06 2.65322e-08 -6.81489e-09 2.86265e-09 -9.33876e-08 3.29169e-06)
(2.71756e-06 2.75147e-08 -2.67042e-09 3.49022e-09 -9.341e-08 2.71462e-06)
(2.17666e-06 2.32379e-08 1.21016e-09 3.95057e-09 -8.96613e-08 2.17321e-06)
(1.68991e-06 1.5915e-08 3.4659e-09 4.23639e-09 -8.28756e-08 1.68599e-06)
(1.26722e-06 8.66702e-09 3.49733e-09 4.44794e-09 -7.4323e-08 1.26292e-06)
(9.10034e-07 3.67043e-09 2.24592e-09 4.69236e-09 -6.50153e-08 9.05387e-07)
(6.15627e-07 1.1515e-09 9.97586e-10 5.02108e-09 -5.53422e-08 6.10616e-07)
(3.80787e-07 2.29559e-10 2.80907e-10 5.46405e-09 -4.52826e-08 3.75324e-07)
(2.03153e-07 1.60696e-11 2.16736e-11 6.09315e-09 -3.46512e-08 1.9706e-07)
(8.18087e-08 1.17867e-12 -1.24343e-11 7.13417e-09 -2.30812e-08 7.46745e-08)
(1.88238e-08 8.71074e-13 -8.64668e-13 9.41189e-09 -9.41189e-09 9.41188e-09)
(0.000340249 -3.36834e-07 -4.95547e-06 3.8237e-09 -3.12109e-08 0.000340261)
(0.000339486 -1.00115e-06 -4.93932e-06 6.55271e-09 -8.74778e-08 0.0003395)
(0.000338153 -1.65007e-06 -4.88961e-06 1.18325e-08 -1.27543e-07 0.000338171)
(0.000336497 -2.28782e-06 -4.82892e-06 1.95297e-08 -1.4613e-07 0.000336522)
(0.00033476 -2.91458e-06 -4.76684e-06 2.95088e-08 -1.43085e-07 0.000334795)
(0.000333136 -3.52612e-06 -4.711e-06 4.15438e-08 -1.22321e-07 0.000333183)
(0.000331745 -4.11551e-06 -4.66635e-06 5.52795e-08 -9.01901e-08 0.000331805)
(0.000330637 -4.67455e-06 -4.63508e-06 7.02279e-08 -5.39906e-08 0.000330712)
(0.000329796 -5.19485e-06 -4.61693e-06 8.5799e-08 -2.07825e-08 0.000329887)
(0.00032916 -5.66888e-06 -4.60974e-06 1.01362e-07 3.68952e-09 0.000329266)
(0.000328639 -6.0906e-06 -4.61027e-06 1.16306e-07 1.57382e-08 0.000328761)
(0.000328138 -6.45594e-06 -4.61482e-06 1.30104e-07 1.43292e-08 0.000328274)
(0.000327577 -6.76296e-06 -4.62033e-06 1.4234e-07 9.43536e-10 0.000327726)
(0.000326902 -7.01129e-06 -4.62496e-06 1.52698e-07 -2.17166e-08 0.000327062)
(0.000326084 -7.20105e-06 -4.62841e-06 1.60929e-07 -5.17069e-08 0.000326253)
(0.000325103 -7.33208e-06 -4.63122e-06 1.66816e-07 -8.95784e-08 0.000325279)
(0.000323935 -7.40272e-06 -4.63445e-06 1.70141e-07 -1.39737e-07 0.000324115)
(0.000322523 -7.41011e-06 -4.63705e-06 1.70733e-07 -2.09125e-07 0.000322705)
(0.000320765 -7.35224e-06 -4.6365e-06 1.68566e-07 -3.05862e-07 0.000320945)
(0.000318566 -7.22718e-06 -4.63101e-06 1.63715e-07 -4.40262e-07 0.000318742)
(0.000315783 -7.03367e-06 -4.61473e-06 1.56443e-07 -6.21561e-07 0.000315952)
(0.000312264 -6.77306e-06 -4.58196e-06 1.47274e-07 -8.56401e-07 0.000312422)
(0.000307854 -6.44962e-06 -4.52463e-06 1.36975e-07 -1.14749e-06 0.000307999)
(0.000302426 -6.0719e-06 -4.43578e-06 1.26538e-07 -1.49175e-06 0.000302555)
(0.000295896 -5.65113e-06 -4.30909e-06 1.17011e-07 -1.88079e-06 0.000296005)
(0.00028823 -5.20174e-06 -4.13992e-06 1.0934e-07 -2.29713e-06 0.000288319)
(0.000279482 -4.74225e-06 -3.9326e-06 1.04135e-07 -2.71436e-06 0.000279548)
(0.000269801 -4.2917e-06 -3.71897e-06 1.01719e-07 -3.12248e-06 0.000269844)
(0.00025931 -3.82734e-06 -3.55091e-06 1.02788e-07 -3.57386e-06 0.000259328)
(0.000247828 -3.328e-06 -3.38477e-06 1.09706e-07 -4.11322e-06 0.000247815)
(0.000235227 -2.80574e-06 -3.20827e-06 1.25434e-07 -4.73615e-06 0.000235177)
(0.000221419 -2.26791e-06 -3.0208e-06 1.5367e-07 -5.44251e-06 0.00022132)
(0.000206323 -1.7227e-06 -2.81674e-06 1.99637e-07 -6.23266e-06 0.000206161)
(0.000189884 -1.18302e-06 -2.58347e-06 2.69842e-07 -7.09204e-06 0.000189638)
(0.000172118 -6.68563e-07 -2.30383e-06 3.70918e-07 -7.97828e-06 0.000171761)
(0.00015317 -2.05872e-07 -1.96154e-06 5.07145e-07 -8.81368e-06 0.00015267)
(0.000133367 1.73901e-07 -1.55019e-06 6.76597e-07 -9.48735e-06 0.000132695)
(0.000113242 4.39095e-07 -1.08445e-06 8.6732e-07 -9.87466e-06 0.000112378)
(9.35007e-05 5.65662e-07 -6.09138e-07 1.05705e-06 -9.87673e-06 9.24486e-05)
(7.48783e-05 5.43926e-07 -1.96529e-07 1.21984e-06 -9.46294e-06 7.36655e-05)
(5.81315e-05 4.03979e-07 6.4781e-08 1.34373e-06 -8.71847e-06 5.67959e-05)
(4.36628e-05 2.29028e-07 1.41117e-07 1.44002e-06 -7.786e-06 4.22292e-05)
(3.15253e-05 9.86143e-08 1.02093e-07 1.53286e-06 -6.77528e-06 2.99957e-05)
(2.16039e-05 3.25443e-08 4.29871e-08 1.64074e-06 -5.72164e-06 1.99643e-05)
(1.37376e-05 8.99052e-09 7.88659e-09 1.76694e-06 -4.59879e-06 1.19709e-05)
(7.59318e-06 3.21675e-09 -2.69528e-09 1.83594e-06 -3.25111e-06 5.75727e-06)
(2.44944e-06 1.04593e-09 -1.04682e-09 1.22472e-06 -1.22472e-06 1.22472e-06)
(8.18086e-08 1.24327e-11 -1.17021e-12 7.46745e-08 -2.30811e-08 7.13415e-09)
(0.00280717 -2.54846e-06 -0.000119529 1.36841e-07 -4.06819e-07 0.00280804)
(0.00280161 -7.53592e-06 -0.00011924 1.58152e-07 -1.13575e-06 0.0028025)
(0.00279188 -1.23581e-05 -0.000118508 1.98138e-07 -1.63809e-06 0.00279279)
(0.00277978 -1.70594e-05 -0.000117609 2.54133e-07 -1.83773e-06 0.00278073)
(0.00276707 -2.16253e-05 -0.00011668 3.233e-07 -1.73272e-06 0.00276806)
(0.00275512 -2.60292e-05 -0.000115833 4.02766e-07 -1.37884e-06 0.00275618)
(0.00274482 -3.02293e-05 -0.000115141 4.89455e-07 -8.66791e-07 0.00274597)
(0.00273653 -3.41757e-05 -0.000114636 5.79971e-07 -3.01227e-07 0.00273777)
(0.00273013 -3.78174e-05 -0.000114316 6.70677e-07 2.1644e-07 0.00273146)
(0.00272516 -4.11081e-05 -0.000114148 7.57956e-07 6.03558e-07 0.00272659)
(0.00272096 -4.40101e-05 -0.000114087 8.38507e-07 8.06871e-07 0.00272249)
(0.00271683 -4.64986e-05 -0.000114076 9.09629e-07 8.1113e-07 0.00271846)
(0.00271219 -4.85623e-05 -0.00011407 9.69272e-07 6.37102e-07 0.00271389)
(0.0027066 -5.02014e-05 -0.000114041 1.01584e-06 3.23138e-07 0.00270839)
(0.00269985 -5.14206e-05 -0.000113978 1.04794e-06 -1.03049e-07 0.00270169)
(0.00269176 -5.22247e-05 -0.000113886 1.06435e-06 -6.49252e-07 0.00269365)
(0.0026821 -5.26101e-05 -0.00011377 1.064e-06 -1.37821e-06 0.00268403)
(0.00267045 -5.25689e-05 -0.00011361 1.04703e-06 -2.388e-06 0.0026724)
(0.00265673 -5.21045e-05 -0.000113387 1.01485e-06 -3.79592e-06 0.00265869)
(0.00263966 -5.1195e-05 -0.000113044 9.69663e-07 -5.75005e-06 0.00264162)
(0.00261814 -4.98396e-05 -0.000112489 9.16832e-07 -8.38265e-06 0.00262007)
(0.00259103 -4.80494e-05 -0.000111627 8.64618e-07 -1.1791e-05 0.0025929)
(0.00255714 -4.58491e-05 -0.000110336 8.24236e-07 -1.60172e-05 0.00255891)
(0.00251549 -4.32855e-05 -0.000108509 8.08925e-07 -2.10221e-05 0.00251713)
(0.0024654 -4.04091e-05 -0.000106056 8.31955e-07 -2.66962e-05 0.00246684)
(0.00240651 -3.72811e-05 -0.000102907 9.03695e-07 -3.28101e-05 0.0024077)
(0.00233899 -3.40266e-05 -9.90814e-05 1.02748e-06 -3.90028e-05 0.00233985)
(0.00226373 -3.08647e-05 -9.48784e-05 1.20128e-06 -4.51257e-05 0.00226424)
(0.00218169 -2.76676e-05 -9.08172e-05 1.45584e-06 -5.19261e-05 0.00218178)
(0.00209136 -2.43033e-05 -8.64523e-05 1.8614e-06 -6.00393e-05 0.00209087)
(0.00199174 -2.0912e-05 -8.16484e-05 2.48454e-06 -6.94083e-05 0.00199048)
(0.00188214 -1.75364e-05 -7.63891e-05 3.41159e-06 -8.00564e-05 0.00187981)
(0.00176186 -1.41726e-05 -7.05983e-05 4.76959e-06 -9.20212e-05 0.00175804)
(0.00163034 -1.08129e-05 -6.41311e-05 6.72161e-06 -0.000105127 0.00162442)
(0.00148747 -7.45986e-06 -5.6813e-05 9.44199e-06 -0.000118793 0.0014787)
(0.00133406 -4.14662e-06 -4.85101e-05 1.30592e-05 -0.000131908 0.00132151)
(0.00117221 -9.74616e-07 -3.92371e-05 1.75593e-05 -0.000142817 0.00115498)
(0.0010056 1.83155e-06 -2.92935e-05 2.26753e-05 -0.000149565 0.000983083)
(0.000839637 3.90403e-06 -1.93689e-05 2.78522e-05 -0.000150468 0.000811833)
(0.00068173 4.7115e-06 -1.05273e-05 3.24428e-05 -0.000145074 0.000649314)
(0.000536793 3.99817e-06 -4.11889e-06 3.59772e-05 -0.000134074 0.000500882)
(0.000409329 2.471e-06 -9.51711e-07 3.86197e-05 -0.000119509 0.000370797)
(0.000300956 1.19062e-06 -1.62499e-07 4.086e-05 -0.000103012 0.000260156)
(0.000209858 5.30998e-07 -2.13972e-07 4.25555e-05 -8.43499e-05 0.000167328)
(0.000129811 2.55687e-07 -2.31135e-07 4.09066e-05 -6.02989e-05 8.89106e-05)
(5.40497e-05 7.92998e-08 -7.9365e-08 2.70253e-05 -2.70241e-05 2.70253e-05)
(7.59317e-06 2.68951e-09 -3.22231e-09 5.75727e-06 -3.25111e-06 1.83593e-06)
(2.03153e-07 -2.17312e-11 -1.61073e-11 1.9706e-07 -3.46512e-08 6.09314e-09)
(0.00956967 -7.78099e-06 -0.000551933 1.22858e-06 -2.13958e-06 0.00956551)
(0.00955608 -2.29247e-05 -0.000550405 1.30171e-06 -5.99899e-06 0.00955196)
(0.00953231 -3.74129e-05 -0.000548556 1.43542e-06 -8.72551e-06 0.00952832)
(0.00950278 -5.13729e-05 -0.000546277 1.61129e-06 -9.93957e-06 0.00949895)
(0.00947177 -6.4733e-05 -0.000543968 1.81081e-06 -9.63055e-06 0.00946815)
(0.0094427 -7.74318e-05 -0.000541961 2.01934e-06 -8.07319e-06 0.00943933)
(0.00941774 -8.93798e-05 -0.000540481 2.22492e-06 -5.71827e-06 0.00941464)
(0.00939776 -0.000100471 -0.00053964 2.41771e-06 -3.08909e-06 0.00939495)
(0.00938246 -0.000110595 -0.000539439 2.58936e-06 -6.94175e-07 0.00937995)
(0.00937069 -0.00011965 -0.000539793 2.73305e-06 1.05117e-06 0.00936848)
(0.00936077 -0.000127551 -0.000540567 2.8437e-06 1.87854e-06 0.00935886)
(0.00935093 -0.000134244 -0.000541604 2.91826e-06 1.70921e-06 0.00934931)
(0.00933962 -0.000139709 -0.000542771 2.9551e-06 6.43308e-07 0.00933829)
(0.00932571 -0.000143962 -0.000543994 2.95244e-06 -1.13217e-06 0.00932465)
(0.0093085 -0.000147037 -0.000545263 2.90791e-06 -3.48404e-06 0.0093077)
(0.00928741 -0.000148978 -0.000546604 2.81875e-06 -6.45782e-06 0.00928686)
(0.00926173 -0.000149811 -0.000548056 2.68355e-06 -1.03751e-05 0.00926142)
(0.00923037 -0.000149554 -0.000549553 2.5081e-06 -1.57408e-05 0.00923031)
(0.00919377 -0.000148238 -0.000551103 2.3035e-06 -2.31442e-05 0.00919394)
(0.00914795 -0.000145801 -0.000552488 2.08884e-06 -3.33322e-05 0.00914833)
(0.00908998 -0.000142263 -0.000553403 1.90207e-06 -4.69977e-05 0.00909054)
(0.00901687 -0.000137645 -0.000553532 1.79769e-06 -6.46679e-05 0.00901752)
(0.0089254 -0.000131982 -0.000552437 1.8489e-06 -8.6605e-05 0.008926)
(0.00881284 -0.000125351 -0.000549727 2.13961e-06 -0.000112681 0.00881317)
(0.00867704 -0.000117774 -0.000545067 2.75345e-06 -0.000142465 0.00867682)
(0.0085165 -0.000109242 -0.000538153 3.75936e-06 -0.00017503 0.00851535)
(0.00833041 -0.000100019 -0.000528767 5.19071e-06 -0.000208873 0.00832793)
(0.0081194 -9.10202e-05 -0.000517188 7.04378e-06 -0.00024339 0.00811518)
(0.00788483 -8.21481e-05 -0.000504392 9.59359e-06 -0.000282209 0.00787818)
(0.00762219 -7.32678e-05 -0.000489437 1.34128e-05 -0.000328501 0.00761187)
(0.00732834 -6.49022e-05 -0.000471987 1.90408e-05 -0.000382294 0.00731262)
(0.00700045 -5.70745e-05 -0.000451807 2.7213e-05 -0.000444113 0.00697686)
(0.00663542 -4.94253e-05 -0.000428309 3.90247e-05 -0.000514565 0.00660035)
(0.0062303 -4.13793e-05 -0.000400608 5.59118e-05 -0.000593193 0.00617862)
(0.00578302 -3.21646e-05 -0.000367676 7.94915e-05 -0.000677436 0.00570787)
(0.00529331 -2.09554e-05 -0.000328582 0.000111149 -0.000761747 0.0051863)
(0.00476368 -7.28611e-06 -0.000282793 0.000151265 -0.000837139 0.00461594)
(0.00420056 8.2576e-06 -0.000230589 0.000198202 -0.000891821 0.00400485)
(0.00361584 2.34384e-05 -0.000173588 0.000247624 -0.000913759 0.00336959)
(0.00303032 3.30927e-05 -0.000115275 0.000293349 -0.000895722 0.00273756)
(0.00246097 3.20746e-05 -6.39984e-05 0.000329322 -0.000836875 0.0021321)
(0.00192775 2.28719e-05 -3.03394e-05 0.000353647 -0.000745065 0.00157467)
(0.00143355 1.31457e-05 -1.41886e-05 0.000363522 -0.00062303 0.00107049)
(0.000954733 6.57182e-06 -6.86162e-06 0.000339436 -0.000456751 0.000615521)
(0.000479646 2.28934e-06 -2.29026e-06 0.000239852 -0.000239769 0.000239852)
(0.00012981 2.30934e-07 -2.55888e-07 8.89106e-05 -6.02988e-05 4.09065e-05)
(1.37376e-05 -7.90074e-09 -9.00531e-09 1.19709e-05 -4.59878e-06 1.76694e-06)
(3.80787e-07 -2.81073e-10 -2.29764e-10 3.75324e-07 -4.52825e-08 5.46404e-09)
(0.0176203 -1.21273e-05 -0.00122793 4.31043e-06 -5.73641e-06 0.0175972)
(0.0176065 -3.59153e-05 -0.00122387 4.44614e-06 -1.61127e-05 0.0175834)
(0.0175825 -5.85552e-05 -0.0012201 4.68827e-06 -2.35943e-05 0.0175595)
(0.017553 -7.98909e-05 -0.0012156 4.98175e-06 -2.72524e-05 0.0175301)
(0.0175224 -9.99443e-05 -0.00121135 5.27667e-06 -2.70456e-05 0.0174998)
(0.0174944 -0.000118649 -0.00120811 5.53796e-06 -2.36628e-05 0.0174721)
(0.0174713 -0.000135926 -0.0012064 5.74192e-06 -1.82438e-05 0.0174493)
(0.0174538 -0.000151684 -0.00120647 5.87378e-06 -1.21197e-05 0.0174323)
(0.0174418 -0.000165822 -0.00120826 5.92488e-06 -6.58745e-06 0.0174206)
(0.0174337 -0.000178245 -0.00121155 5.891e-06 -2.70943e-06 0.0174131)
(0.0174278 -0.000188866 -0.00121598 5.7722e-06 -1.17617e-06 0.0174077)
(0.0174221 -0.000197639 -0.00122115 5.57311e-06 -2.20359e-06 0.0174024)
(0.0174147 -0.000204576 -0.00122669 5.30075e-06 -5.56543e-06 0.0173956)
(0.0174043 -0.000209751 -0.00123236 4.95999e-06 -1.08253e-05 0.0173857)
(0.0173897 -0.000213277 -0.00123801 4.55278e-06 -1.76895e-05 0.0173716)
(0.01737 -0.000215291 -0.00124357 4.07921e-06 -2.63225e-05 0.0173524)
(0.0173441 -0.000215877 -0.001249 3.54425e-06 -3.75927e-05 0.017327)
(0.0173107 -0.000215091 -0.00125413 2.96986e-06 -5.28538e-05 0.0172941)
(0.0172706 -0.000213016 -0.00125928 2.3941e-06 -7.35785e-05 0.0172544)
(0.0172186 -0.000209567 -0.0012635 1.89483e-06 -0.000101661 0.0172028)
(0.0171512 -0.000204754 -0.00126608 1.60708e-06 -0.000138967 0.0171356)
(0.0170651 -0.000198569 -0.00126638 1.71793e-06 -0.000186951 0.0170493)
(0.0169564 -0.000190991 -0.00126347 2.48146e-06 -0.000246427 0.0169396)
(0.0168216 -0.000182092 -0.00125668 4.18714e-06 -0.000317265 0.0168031)
(0.0166582 -0.000171783 -0.0012457 7.12638e-06 -0.000398707 0.0166367)
(0.0164636 -0.000159743 -0.00123046 1.1568e-05 -0.000489187 0.0164378)
(0.0162352 -0.000145631 -0.00121084 1.77564e-05 -0.000586368 0.0162033)
(0.0159693 -0.000129947 -0.00118878 2.59622e-05 -0.00068998 0.0159294)
(0.0156613 -0.000114853 -0.00117405 3.74481e-05 -0.000807925 0.0156111)
(0.0153085 -0.000102914 -0.00115432 5.43403e-05 -0.000947817 0.0152428)
(0.0149066 -9.38466e-05 -0.00112904 7.88163e-05 -0.00111154 0.0148183)
(0.0144503 -8.72172e-05 -0.00109711 0.000114072 -0.00130205 0.0143289)
(0.0139342 -8.16949e-05 -0.00105695 0.000164779 -0.00152238 0.0137646)
(0.0133532 -7.5119e-05 -0.00100706 0.000237108 -0.00177305 0.0131138)
(0.0127027 -6.42946e-05 -0.00094659 0.00033831 -0.00204945 0.0123645)
(0.0119782 -4.51166e-05 -0.00087563 0.000475444 -0.00233917 0.0115048)
(0.0111745 -1.34435e-05 -0.000794886 0.000652778 -0.00261966 0.0105249)
(0.0102842 3.29821e-05 -0.000704306 0.000867851 -0.00285749 0.00941941)
(0.00929714 9.24359e-05 -0.000600441 0.00110712 -0.00301046 0.00819218)
(0.00820223 0.000146839 -0.000471586 0.00134234 -0.00303315 0.00686124)
(0.00697955 0.00016323 -0.000320061 0.00153146 -0.00288539 0.00544946)
(0.00562285 0.000132864 -0.00018578 0.00162937 -0.00254691 0.00399552)
(0.0040956 8.11794e-05 -9.23072e-05 0.0015617 -0.00198646 0.00253581)
(0.00241498 3.39501e-05 -3.39561e-05 0.00120795 -0.0012064 0.00120795)
(0.000954732 6.85951e-06 -6.5739e-06 0.000615521 -0.00045675 0.000339435)
(0.000209858 2.13598e-07 -5.31381e-07 0.000167328 -8.43498e-05 4.25554e-05)
(2.16039e-05 -4.30126e-08 -3.25745e-08 1.99642e-05 -5.72162e-06 1.64073e-06)
(6.15627e-07 -9.979e-10 -1.15208e-09 6.10615e-07 -5.53421e-08 5.02107e-09)
(0.022592 -1.17471e-05 -0.00230228 8.69305e-06 -1.00527e-05 0.0225959)
(0.0225843 -3.506e-05 -0.00229908 8.86668e-06 -2.82077e-05 0.022588)
(0.0225713 -5.72532e-05 -0.00229323 9.15246e-06 -4.13485e-05 0.0225747)
(0.0225561 -7.78162e-05 -0.0022865 9.46208e-06 -4.7941e-05 0.0225591)
(0.0225416 -9.69273e-05 -0.00228036 9.72088e-06 -4.79144e-05 0.0225444)
(0.0225302 -0.000114493 -0.00227599 9.87659e-06 -4.2471e-05 0.0225329)
(0.0225231 -0.000130411 -0.00227418 9.90119e-06 -3.35904e-05 0.022526)
(0.0225209 -0.000144563 -0.00227526 9.78136e-06 -2.35829e-05 0.0225241)
(0.0225232 -0.000156822 -0.00227919 9.51186e-06 -1.46965e-05 0.0225269)
(0.0225288 -0.000167066 -0.00228558 9.09281e-06 -8.77228e-06 0.0225333)
(0.0225365 -0.000175205 -0.0022939 8.53105e-06 -7.01195e-06 0.0225418)
(0.0225448 -0.00018122 -0.00230347 7.84228e-06 -9.82255e-06 0.022551)
(0.0225521 -0.000185195 -0.00231366 7.04809e-06 -1.68865e-05 0.0225594)
(0.0225572 -0.000187311 -0.00232393 6.16761e-06 -2.75567e-05 0.0225654)
(0.0225587 -0.000187783 -0.0023339 5.21559e-06 -4.14484e-05 0.022568)
(0.0225554 -0.000186816 -0.00234328 4.20356e-06 -5.89631e-05 0.0225657)
(0.0225458 -0.000184435 -0.00235186 3.15433e-06 -8.16954e-05 0.022557)
(0.0225289 -0.000180572 -0.00235934 2.12498e-06 -0.000112047 0.0225409)
(0.0225054 -0.000175236 -0.00236611 1.21137e-06 -0.000152525 0.022518)
(0.0224706 -0.000168121 -0.00237065 6.09579e-07 -0.000206349 0.0224833)
(0.0224219 -0.000158991 -0.00237174 6.43415e-07 -0.000276797 0.022434)
(0.0223569 -0.000147567 -0.00236843 1.75844e-06 -0.000366461 0.022367)
(0.0222728 -0.000133587 -0.00235926 4.56033e-06 -0.000476892 0.0222789)
(0.0221672 -0.000117127 -0.00234326 9.74213e-06 -0.000608094 0.0221667)
(0.0220385 -9.82018e-05 -0.00232036 1.80153e-05 -0.000759208 0.0220279)
(0.021885 -7.66925e-05 -0.00229137 3.00675e-05 -0.000928751 0.0218602)
(0.021704 -5.3071e-05 -0.00225687 4.67415e-05 -0.00111552 0.0216603)
(0.0214906 -3.07747e-05 -0.00221382 6.9958e-05 -0.00132252 0.0214213)
(0.0212382 -9.76934e-06 -0.00215693 0.000103321 -0.00156001 0.0211332)
(0.0209453 1.08413e-05 -0.00209107 0.0001511 -0.00183827 0.0207906)
(0.02061 2.81488e-05 -0.00201669 0.000218952 -0.00216396 0.0203855)
(0.0202295 4.37586e-05 -0.00193318 0.000315483 -0.002544 0.019907)
(0.0198028 6.0093e-05 -0.00184124 0.000452551 -0.00298473 0.0193422)
(0.0193312 8.01356e-05 -0.00174345 0.000645493 -0.00348848 0.0186772)
(0.0188169 0.000107261 -0.00164387 0.000912455 -0.00404998 0.0178961)
(0.0182599 0.000144834 -0.00154662 0.0012722 -0.00465233 0.0169797)
(0.0176506 0.000195683 -0.00145308 0.00173943 -0.00526248 0.0159036)
(0.0169606 0.000262385 -0.00135872 0.00231692 -0.00582682 0.0146362)
(0.0161276 0.000355759 -0.00125044 0.00298403 -0.00626595 0.0131358)
(0.0150213 0.000461561 -0.00108443 0.00367075 -0.00645753 0.0113432)
(0.0134006 0.000502616 -0.000823767 0.00422189 -0.0062233 0.00917402)
(0.0110098 0.000421549 -0.000517533 0.00439318 -0.00538508 0.00661669)
(0.00773029 0.000255092 -0.000255113 0.00386668 -0.0038593 0.00386668)
(0.0040956 9.22963e-05 -8.11899e-05 0.00253581 -0.00198646 0.00156169)
(0.00143355 1.41852e-05 -1.31491e-05 0.00107049 -0.000623029 0.000363521)
(0.000300956 1.61932e-07 -1.19124e-06 0.000260156 -0.000103012 4.08599e-05)
(3.15252e-05 -1.02133e-07 -9.86683e-08 2.99957e-05 -6.77526e-06 1.53285e-06)
(9.10033e-07 -2.24641e-09 -3.67168e-09 9.05386e-07 -6.50152e-08 4.69236e-09)
(0.0240234 -8.12469e-06 -0.0027333 1.28269e-05 -1.45899e-05 0.0240519)
(0.0240233 -2.39643e-05 -0.00273566 1.30145e-05 -4.09998e-05 0.0240521)
(0.0240233 -3.88602e-05 -0.0027348 1.32917e-05 -6.03137e-05 0.0240519)
(0.0240232 -5.27448e-05 -0.00273398 1.35465e-05 -7.04142e-05 0.0240518)
(0.0240231 -6.55636e-05 -0.00273354 1.36864e-05 -7.12622e-05 0.0240517)
(0.0240231 -7.71517e-05 -0.00273377 1.36516e-05 -6.45905e-05 0.0240518)
(0.024023 -8.73088e-05 -0.00273495 1.34197e-05 -5.32171e-05 0.024052)
(0.0240229 -9.58082e-05 -0.00273733 1.29857e-05 -4.04131e-05 0.0240523)
(0.0240229 -0.000102418 -0.00274107 1.23508e-05 -2.93427e-05 0.0240528)
(0.0240228 -0.000106946 -0.00274627 1.15202e-05 -2.2584e-05 0.0240535)
(0.0240228 -0.000109266 -0.00275293 1.05079e-05 -2.18219e-05 0.0240543)
(0.0240227 -0.000109377 -0.00276099 9.34235e-06 -2.76773e-05 0.0240552)
(0.0240226 -0.000107431 -0.00277033 8.06336e-06 -3.98359e-05 0.0240563)
(0.0240226 -0.000103694 -0.0027809 6.7093e-06 -5.75917e-05 0.0240575)
(0.0240225 -9.84319e-05 -0.00279278 5.31464e-06 -8.06322e-05 0.0240587)
(0.0240223 -9.18366e-05 -0.00280621 3.91046e-06 -0.000109713 0.0240601)
(0.0240222 -8.37359e-05 -0.00282158 2.55054e-06 -0.000147164 0.0240615)
(0.024022 -7.37323e-05 -0.002839 1.36694e-06 -0.000196326 0.0240628)
(0.0240217 -6.17133e-05 -0.00285838 5.74639e-07 -0.000260746 0.0240639)
(0.0240213 -4.70307e-05 -0.00288028 5.60401e-07 -0.000344962 0.0240643)
(0.0240209 -2.89108e-05 -0.00290437 1.9521e-06 -0.000453591 0.0240635)
(0.0240204 -6.50521e-06 -0.00293061 5.63254e-06 -0.000590525 0.0240607)
(0.0240198 2.10386e-05 -0.00295827 1.28001e-05 -0.000758457 0.0240546)
(0.0240191 5.38981e-05 -0.00298693 2.48639e-05 -0.000958219 0.0240439)
(0.0240183 9.19511e-05 -0.00301692 4.33753e-05 -0.00118982 0.0240269)
(0.0240174 0.000134541 -0.00304965 7.00168e-05 -0.00145323 0.024002)
(0.0240162 0.000180306 -0.00308642 0.000106955 -0.00174969 0.0239671)
(0.0239888 0.000228636 -0.00310876 0.000158821 -0.00208338 0.0238904)
(0.023788 0.000276723 -0.00303652 0.000231865 -0.00245326 0.0236105)
(0.0235644 0.000331111 -0.00295636 0.000334619 -0.0028842 0.0232784)
(0.0233224 0.000391287 -0.00287302 0.000477684 -0.00338437 0.0228876)
(0.0230685 0.000458961 -0.00278791 0.000677068 -0.0039624 0.0224291)
(0.0228139 0.000535786 -0.0027048 0.000953522 -0.0046248 0.0218935)
(0.0225728 0.000622662 -0.00262904 0.00133265 -0.00537274 0.0212698)
(0.0223593 0.000719247 -0.00256496 0.00184375 -0.00619839 0.020543)
(0.0221793 0.000823964 -0.00251238 0.00251671 -0.00708043 0.0196892)
(0.0220189 0.000933637 -0.00246275 0.00337542 -0.00797763 0.0186698)
(0.0218257 0.00103985 -0.00239627 0.004425 -0.00881913 0.017426)
(0.0214826 0.00115089 -0.00228388 0.0056338 -0.00949255 0.0158719)
(0.0207603 0.00124383 -0.00203183 0.00688811 -0.00981263 0.0138865)
(0.0191463 0.00116957 -0.00149587 0.00785939 -0.00943642 0.0112794)
(0.0159465 0.000899498 -0.000899541 0.00796852 -0.00797236 0.00796851)
(0.0110098 0.000517502 -0.000421577 0.00661669 -0.00538507 0.00439317)
(0.00562284 0.000185764 -0.000132879 0.00399551 -0.00254691 0.00162937)
(0.00192775 3.03347e-05 -2.28766e-05 0.00157467 -0.000745063 0.000353646)
(0.000409329 9.5093e-07 -2.47192e-06 0.000370796 -0.000119509 3.86196e-05)
(4.36627e-05 -1.41171e-07 -2.29116e-07 4.22291e-05 -7.78598e-06 1.44002e-06)
(1.26722e-06 -3.49801e-09 -8.6693e-09 1.26291e-06 -7.43229e-08 4.44797e-09)
(0.0240238 -3.65864e-06 -0.00229973 1.65498e-05 -1.91048e-05 0.0240063)
(0.0240238 -1.03692e-05 -0.00230088 1.67341e-05 -5.36942e-05 0.0240063)
(0.0240238 -1.64291e-05 -0.00230128 1.69904e-05 -7.91091e-05 0.0240062)
(0.0240238 -2.22451e-05 -0.00230214 1.71757e-05 -9.27596e-05 0.0240062)
(0.0240238 -2.75061e-05 -0.00230373 1.71769e-05 -9.46912e-05 0.0240063)
(0.0240238 -3.19686e-05 -0.00230636 1.69387e-05 -8.71946e-05 0.0240066)
(0.0240239 -3.53302e-05 -0.00231026 1.64522e-05 -7.39164e-05 0.0240071)
(0.0240239 -3.72567e-05 -0.0023157 1.57252e-05 -5.9045e-05 0.0240078)
(0.024024 -3.74147e-05 -0.00232286 1.47668e-05 -4.66066e-05 0.0240086)
(0.0240241 -3.5536e-05 -0.00233184 1.3586e-05 -3.9876e-05 0.0240095)
(0.0240243 -3.14448e-05 -0.00234267 1.22026e-05 -4.10253e-05 0.0240106)
(0.0240244 -2.51091e-05 -0.00235526 1.06579e-05 -5.09628e-05 0.0240119)
(0.0240246 -1.66711e-05 -0.00236948 9.01236e-06 -6.95222e-05 0.0240132)
(0.0240247 -6.38676e-06 -0.00238526 7.3298e-06 -9.61249e-05 0.0240147)
(0.0240248 5.51644e-06 -0.00240268 5.67677e-06 -0.000130694 0.0240161)
(0.0240249 1.89023e-05 -0.00242199 4.12418e-06 -0.00017442 0.0240175)
(0.024025 3.4134e-05 -0.00244377 2.79392e-06 -0.000230311 0.0240188)
(0.024025 5.18624e-05 -0.00246816 1.96283e-06 -0.000302477 0.0240197)
(0.0240249 7.22842e-05 -0.00249517 2.05889e-06 -0.000395385 0.0240198)
(0.0240248 9.63556e-05 -0.00252561 3.789e-06 -0.000514597 0.0240185)
(0.0240245 0.000125147 -0.00255924 8.26566e-06 -0.000665558 0.0240146)
(0.0240241 0.000159839 -0.00259635 1.70431e-05 -0.0008529 0.0240068)
(0.0240235 0.000201636 -0.00263619 3.21989e-05 -0.00107984 0.0239929)
(0.0240228 0.000250632 -0.00267834 5.61848e-05 -0.00134743 0.0239705)
(0.0240218 0.000306284 -0.00272288 9.18047e-05 -0.00165588 0.023937)
(0.0240205 0.000366982 -0.00277033 0.000142387 -0.00200583 0.0238889)
(0.0240189 0.00043039 -0.00282113 0.000212249 -0.0023997 0.023822)
(0.0240172 0.000500534 -0.00287379 0.000308416 -0.00284406 0.02373)
(0.0240153 0.000582697 -0.00292107 0.000442015 -0.00335433 0.0236014)
(0.024013 0.000679971 -0.00297107 0.000626937 -0.00394404 0.0234223)
(0.0240101 0.000794656 -0.00302465 0.000880344 -0.00461928 0.0231756)
(0.0240063 0.00092559 -0.00307835 0.00122452 -0.005383 0.0228387)
(0.024002 0.00106998 -0.00312729 0.00168552 -0.00623096 0.0223852)
(0.0239973 0.00122315 -0.00316502 0.00229148 -0.00714877 0.0217863)
(0.0239927 0.00137935 -0.00318346 0.00306989 -0.00811019 0.0210137)
(0.023989 0.00153436 -0.00317425 0.00404449 -0.00907724 0.0200431)
(0.0239867 0.00168791 -0.00313141 0.005232 -0.0100018 0.0188575)
(0.0239854 0.0018358 -0.00305388 0.00663703 -0.0108268 0.0174515)
(0.0239834 0.00200603 -0.00295828 0.0082491 -0.011492 0.0158391)
(0.0239793 0.00230437 -0.00285851 0.0100652 -0.0119459 0.0140386)
(0.0226364 0.00215873 -0.00215878 0.0113476 -0.011394 0.0113476)
(0.0191463 0.00149581 -0.00116961 0.0112794 -0.00943641 0.00785938)
(0.0134006 0.000823727 -0.000502648 0.009174 -0.00622328 0.00422188)
(0.00697953 0.000320041 -0.000163248 0.00544945 -0.00288539 0.00153146)
(0.00246097 6.39924e-05 -3.20806e-05 0.0021321 -0.000836873 0.000329321)
(0.000536792 4.11788e-06 -3.99947e-06 0.000500882 -0.000134073 3.59771e-05)
(5.81314e-05 -6.48517e-08 -4.04114e-07 5.67958e-05 -8.71845e-06 1.34373e-06)
(1.6899e-06 -3.46679e-09 -1.59188e-08 1.68599e-06 -8.28754e-08 4.23646e-09)
(0.0240223 1.41112e-06 -0.00217121 2.05924e-05 -2.36454e-05 0.0239941)
(0.0240222 4.3462e-06 -0.00216956 2.07829e-05 -6.63879e-05 0.0239938)
(0.0240222 7.15994e-06 -0.00216895 2.10337e-05 -9.77588e-05 0.0239935)
(0.0240222 9.55746e-06 -0.00216885 2.11609e-05 -0.000114738 0.0239934)
(0.0240223 1.18106e-05 -0.00217002 2.10273e-05 -0.000117504 0.0239935)
(0.0240223 1.42999e-05 -0.00217315 2.05847e-05 -0.000108986 0.0239939)
(0.0240224 1.75047e-05 -0.00217873 1.98417e-05 -9.37416e-05 0.0239945)
(0.0240226 2.19398e-05 -0.0021871 1.88223e-05 -7.69539e-05 0.0239955)
(0.0240228 2.81057e-05 -0.00219839 1.75446e-05 -6.35788e-05 0.0239966)
(0.024023 3.64036e-05 -0.00221256 1.60223e-05 -5.7658e-05 0.0239981)
(0.0240232 4.71179e-05 -0.00222941 1.42829e-05 -6.19346e-05 0.0239997)
(0.0240235 6.03718e-05 -0.00224858 1.23868e-05 -7.77113e-05 0.0240015)
(0.0240237 7.60925e-05 -0.00226968 1.0427e-05 -0.000105101 0.0240033)
(0.0240239 9.4085e-05 -0.0022924 8.51135e-06 -0.000143797 0.0240052)
(0.024024 0.00011419 -0.00231665 6.76888e-06 -0.000194079 0.0240069)