/*--------------------------------*- C++ -*----------------------------------*\
| =========                 |                                                 |
| \\      /  F ield         | OpenFOAM: The Open Source CFD Toolbox           |
|  \\    /   O peration     | Version:  2412                                  |
|   \\  /    A nd           | Website:  www.openfoam.com                      |
|    \\/     M anipulation  |                                                 |
\*---------------------------------------------------------------------------*/
FoamFile
{
    version     2.0;
    format      ascii;
    arch        "LSB;label=32;scalar=64";
    class       volSymmTensorField;
    location    "2130";
    object      Tij4;
}
// * * * * * * * * * * * * * * * * * * * * * * * * * * * * * * * * * * * * * //

dimensions      [0 0 0 0 0 0 0];

internalField   nonuniform List<symmTensor> 
2304
(
(-9.95364e-06 1.06066e-08 3.68205e-13 -1.13144e-11 3.45538e-10 -9.95365e-06)
(-9.93115e-06 3.15609e-08 3.10499e-12 -1.00396e-10 9.77037e-10 -9.93125e-06)
(-9.89188e-06 5.21763e-08 7.65574e-12 -2.75425e-10 1.45142e-09 -9.89215e-06)
(-9.84311e-06 7.26616e-08 1.26884e-11 -5.36686e-10 1.71884e-09 -9.84365e-06)
(-9.79199e-06 9.30186e-08 1.68905e-11 -8.83949e-10 1.77805e-09 -9.79288e-06)
(-9.74419e-06 1.13087e-07 1.93324e-11 -1.31274e-09 1.66578e-09 -9.7455e-06)
(-9.70328e-06 1.32603e-07 1.97016e-11 -1.81233e-09 1.44167e-09 -9.70509e-06)
(-9.6707e-06 1.51252e-07 1.8364e-11 -2.36575e-09 1.17415e-09 -9.67306e-06)
(-9.64599e-06 1.68717e-07 1.62534e-11 -2.95109e-09 9.29251e-10 -9.64894e-06)
(-9.6273e-06 1.84716e-07 1.45917e-11 -3.54416e-09 7.60513e-10 -9.63085e-06)
(-9.61201e-06 1.99027e-07 1.45359e-11 -4.12113e-09 7.02012e-10 -9.61613e-06)
(-9.59732e-06 2.11503e-07 1.68106e-11 -4.66111e-09 7.6281e-10 -9.60199e-06)
(-9.5809e-06 2.22074e-07 2.15192e-11 -5.1475e-09 9.28399e-10 -9.58605e-06)
(-9.56116e-06 2.30726e-07 2.83047e-11 -5.56794e-09 1.17293e-09 -9.56673e-06)
(-9.53725e-06 2.37457e-07 3.67979e-11 -5.91241e-09 1.47795e-09 -9.54316e-06)
(-9.5086e-06 2.42245e-07 4.7097e-11 -6.17189e-09 1.84865e-09 -9.51477e-06)
(-9.47443e-06 2.45005e-07 6.01661e-11 -6.3363e-09 2.32664e-09 -9.48077e-06)
(-9.43308e-06 2.45598e-07 7.75337e-11 -6.39526e-09 2.97797e-09 -9.43948e-06)
(-9.38213e-06 2.43948e-07 1.0087e-10 -6.34458e-09 3.87942e-09 -9.38847e-06)
(-9.31828e-06 2.39945e-07 1.32053e-10 -6.18141e-09 5.12827e-09 -9.32446e-06)
(-9.23722e-06 2.33505e-07 1.72204e-10 -5.90771e-09 6.81222e-09 -9.24312e-06)
(-9.13444e-06 2.24649e-07 2.21211e-10 -5.5338e-09 8.99464e-09 -9.13995e-06)
(-9.00535e-06 2.13522e-07 2.77459e-10 -5.07795e-09 1.17019e-08 -9.01039e-06)
(-8.84622e-06 2.00452e-07 3.3777e-10 -4.56729e-09 1.49062e-08 -8.85073e-06)
(-8.65451e-06 1.85911e-07 3.98014e-10 -4.03331e-09 1.85282e-08 -8.65847e-06)
(-8.42942e-06 1.70539e-07 4.53211e-10 -3.50978e-09 2.24013e-08 -8.43281e-06)
(-8.17274e-06 1.55058e-07 4.98562e-10 -3.02639e-09 2.62777e-08 -8.1756e-06)
(-7.889e-06 1.39953e-07 5.33428e-10 -2.59743e-09 3.00684e-08 -7.89137e-06)
(-7.58151e-06 1.24189e-07 5.61358e-10 -2.18922e-09 3.42693e-08 -7.58339e-06)
(-7.24517e-06 1.06845e-07 5.79617e-10 -1.78891e-09 3.93027e-08 -7.24653e-06)
(-6.87601e-06 8.81947e-08 5.7896e-10 -1.42757e-09 4.51361e-08 -6.87685e-06)
(-6.47117e-06 6.8515e-08 5.48145e-10 -1.13963e-09 5.17684e-08 -6.47148e-06)
(-6.02808e-06 4.82278e-08 4.73675e-10 -9.67322e-10 5.91998e-08 -6.02789e-06)
(-5.54506e-06 2.80357e-08 3.40254e-10 -9.58403e-10 6.72876e-08 -5.54439e-06)
(-5.02268e-06 9.02402e-09 1.35901e-10 -1.1551e-09 7.56238e-08 -5.02156e-06)
(-4.46555e-06 -7.3691e-09 -1.37785e-10 -1.57279e-09 8.34661e-08 -4.464e-06)
(-3.88388e-06 -1.9562e-08 -4.52372e-10 -2.17445e-09 8.97671e-08 -3.88191e-06)
(-3.29412e-06 -2.62548e-08 -7.44784e-10 -2.85814e-09 9.33711e-08 -3.29168e-06)
(-2.71756e-06 -2.69995e-08 -9.28981e-10 -3.48198e-09 9.33934e-08 -2.71461e-06)
(-2.17666e-06 -2.26395e-08 -9.34032e-10 -3.93452e-09 8.96495e-08 -2.1732e-06)
(-1.68991e-06 -1.5471e-08 -7.60499e-10 -4.21555e-09 8.28695e-08 -1.68597e-06)
(-1.26722e-06 -8.4798e-09 -4.99048e-10 -4.43078e-09 7.43201e-08 -1.2629e-06)
(-9.10034e-07 -3.64512e-09 -2.61755e-10 -4.6833e-09 6.50139e-08 -9.0538e-07)
(-6.15627e-07 -1.16727e-09 -1.05794e-10 -5.01804e-09 5.53418e-08 -6.10614e-07)
(-3.80787e-07 -2.38108e-10 -2.87275e-11 -5.46345e-09 4.52825e-08 -3.75324e-07)
(-2.03153e-07 -1.41224e-11 -2.48329e-12 -6.0931e-09 3.46512e-08 -1.9706e-07)
(-8.18087e-08 3.37632e-12 1.04359e-12 -7.13417e-09 2.30812e-08 -7.46745e-08)
(-1.88238e-08 -1.54248e-15 -1.54248e-15 -9.41189e-09 9.41189e-09 -9.41188e-09)
(-0.000340249 3.37766e-07 3.61222e-11 -3.39193e-10 3.63877e-08 -0.000340249)
(-0.000339486 1.00326e-06 3.03999e-10 -2.99603e-09 1.02868e-07 -0.000339489)
(-0.000338153 1.65273e-06 7.46876e-10 -8.14683e-09 1.52813e-07 -0.000338161)
(-0.000336497 2.29081e-06 1.23223e-09 -1.56928e-08 1.81002e-07 -0.000336512)
(-0.00033476 2.91734e-06 1.63215e-09 -2.55286e-08 1.87286e-07 -0.000334786)
(-0.000333136 3.52817e-06 1.85906e-09 -3.74585e-08 1.75535e-07 -0.000333173)
(-0.000331745 4.11649e-06 1.88639e-09 -5.11495e-08 1.52023e-07 -0.000331796)
(-0.000330637 4.67427e-06 1.75231e-09 -6.61273e-08 1.23951e-07 -0.000330703)
(-0.000329796 5.19327e-06 1.54747e-09 -8.18072e-08 9.82713e-08 -0.000329878)
(-0.00032916 5.6661e-06 1.38784e-09 -9.7555e-08 8.06233e-08 -0.000329257)
(-0.000328639 6.08682e-06 1.38169e-09 -1.12753e-07 7.46003e-08 -0.000328752)
(-0.000328138 6.45139e-06 1.59571e-09 -1.26858e-07 8.11626e-08 -0.000328265)
(-0.000327577 6.75781e-06 2.03793e-09 -1.39441e-07 9.87862e-08 -0.000327716)
(-0.000326902 7.00555e-06 2.67342e-09 -1.50177e-07 1.24751e-07 -0.000327052)
(-0.000326084 7.19459e-06 3.4664e-09 -1.58814e-07 1.57109e-07 -0.000326242)
(-0.000325103 7.32458e-06 4.42504e-09 -1.65142e-07 1.96407e-07 -0.000325268)
(-0.000323935 7.39398e-06 5.63856e-09 -1.68959e-07 2.47029e-07 -0.000324104)
(-0.000322523 7.4002e-06 7.24784e-09 -1.70105e-07 3.15883e-07 -0.000322693)
(-0.000320765 7.34111e-06 9.40744e-09 -1.68538e-07 4.11051e-07 -0.000320932)
(-0.000318566 7.21501e-06 1.22942e-08 -1.64334e-07 5.42825e-07 -0.000318728)
(-0.000315783 7.02109e-06 1.60174e-08 -1.57751e-07 7.20399e-07 -0.000315938)
(-0.000312264 6.76108e-06 2.05792e-08 -1.49284e-07 9.50453e-07 -0.000312408)
(-0.000307854 6.43968e-06 2.585e-08 -1.39668e-07 1.23576e-06 -0.000307984)
(-0.000302426 6.06572e-06 3.15587e-08 -1.29849e-07 1.57342e-06 -0.00030254)
(-0.000295896 5.6508e-06 3.73412e-08 -1.2084e-07 1.95523e-06 -0.000295991)
(-0.00028823 5.2084e-06 4.27206e-08 -1.13514e-07 2.36398e-06 -0.000288305)
(-0.000279482 4.75125e-06 4.71562e-08 -1.08308e-07 2.77359e-06 -0.000279535)
(-0.000269801 4.28704e-06 5.04446e-08 -1.0548e-07 3.17425e-06 -0.000269832)
(-0.00025931 3.80622e-06 5.31226e-08 -1.06381e-07 3.61842e-06 -0.000259315)
(-0.000247828 3.30033e-06 5.52859e-08 -1.13488e-07 4.15036e-06 -0.000247802)
(-0.000235227 2.77295e-06 5.62067e-08 -1.29307e-07 4.766e-06 -0.000235163)
(-0.000221419 2.23086e-06 5.50988e-08 -1.57476e-07 5.46537e-06 -0.000221307)
(-0.000206323 1.68567e-06 5.11015e-08 -2.03224e-07 6.249e-06 -0.000206148)
(-0.000189884 1.15517e-06 4.32693e-08 -2.73076e-07 7.10252e-06 -0.000189625)
(-0.000172118 6.64075e-07 3.08701e-08 -3.73702e-07 7.9838e-06 -0.000171749)
(-0.00015317 2.42172e-07 1.39841e-08 -5.09423e-07 8.81534e-06 -0.000152661)
(-0.000133367 -8.09141e-08 -5.78484e-09 -6.78264e-07 9.48638e-06 -0.000132689)
(-0.000113242 -2.84251e-07 -2.4972e-08 -8.68018e-07 9.87229e-06 -0.000112375)
(-9.35007e-05 -3.65096e-07 -3.89954e-08 -1.05607e-06 9.87403e-06 -9.24475e-05)
(-7.48783e-05 -3.43389e-07 -4.41022e-08 -1.21666e-06 9.46072e-06 -7.36648e-05)
(-5.81315e-05 -2.6042e-07 -3.99714e-08 -1.33917e-06 8.71714e-06 -5.67947e-05)
(-4.36628e-05 -1.63135e-07 -3.00772e-08 -1.43604e-06 7.78546e-06 -4.2228e-05)
(-3.15253e-05 -8.39158e-08 -1.89547e-08 -1.5306e-06 6.77519e-06 -2.99952e-05)
(-2.16039e-05 -3.42249e-08 -9.80886e-09 -1.63989e-06 5.72169e-06 -1.99641e-05)
(-1.37376e-05 -1.02079e-08 -3.92155e-09 -1.76674e-06 4.59883e-06 -1.19709e-05)
(-7.59318e-06 -1.66959e-09 -9.42815e-10 -1.83591e-06 3.25113e-06 -5.75727e-06)
(-2.44944e-06 4.38937e-13 4.38937e-13 -1.22472e-06 1.22472e-06 -1.22472e-06)
(-8.18086e-08 -1.04442e-12 -3.37902e-12 -7.46745e-08 2.30811e-08 -7.13415e-09)
(-0.00280717 2.5705e-06 4.757e-10 -2.44993e-09 5.19499e-07 -0.00280717)
(-0.00280161 7.61815e-06 3.99428e-09 -2.14855e-08 1.46891e-06 -0.00280163)
(-0.00279188 1.24954e-05 9.77145e-09 -5.7632e-08 2.18326e-06 -0.00279194)
(-0.00277978 1.72194e-05 1.60326e-08 -1.09076e-07 2.5882e-06 -0.00277989)
(-0.00276707 2.17864e-05 2.11101e-08 -1.74133e-07 2.68116e-06 -0.00276723)
(-0.00275512 2.61732e-05 2.39107e-08 -2.5094e-07 2.51695e-06 -0.00275536)
(-0.00274482 3.03432e-05 2.41525e-08 -3.37174e-07 2.18482e-06 -0.00274516)
(-0.00273653 3.42533e-05 2.23753e-08 -4.29917e-07 1.78759e-06 -0.00273696)
(-0.00273013 3.78587e-05 1.97571e-08 -5.2573e-07 1.42476e-06 -0.00273066)
(-0.00272516 4.11187e-05 1.77615e-08 -6.2093e-07 1.17715e-06 -0.00272578)
(-0.00272096 4.39996e-05 1.77304e-08 -7.11941e-07 1.09646e-06 -0.00272167)
(-0.00271683 4.64775e-05 2.04735e-08 -7.9563e-07 1.19678e-06 -0.00271763)
(-0.00271219 4.85394e-05 2.60706e-08 -8.69483e-07 1.45672e-06 -0.00271305)
(-0.0027066 5.01811e-05 3.40731e-08 -9.31616e-07 1.83779e-06 -0.00270753)
(-0.00269985 5.14025e-05 4.40266e-08 -9.80636e-07 2.31244e-06 -0.00270083)
(-0.00269176 5.22053e-05 5.60239e-08 -1.0156e-06 2.88864e-06 -0.00269277)
(-0.0026821 5.25889e-05 7.11581e-08 -1.03604e-06 3.62914e-06 -0.00268312)
(-0.00267045 5.25524e-05 9.11513e-08 -1.04223e-06 4.63183e-06 -0.00267147)
(-0.00265673 5.21025e-05 1.17948e-07 -1.03543e-06 6.01419e-06 -0.00265774)
(-0.00263966 5.12281e-05 1.53776e-07 -1.01798e-06 7.92365e-06 -0.00264063)
(-0.00261814 4.99408e-05 2.00143e-07 -9.94679e-07 1.04923e-05 -0.00261905)
(-0.00259103 4.82624e-05 2.57395e-07 -9.72693e-07 1.38182e-05 -0.00259185)
(-0.00255714 4.62277e-05 3.24408e-07 -9.61666e-07 1.79441e-05 -0.00255785)
(-0.00251549 4.38861e-05 3.98391e-07 -9.72991e-07 2.28334e-05 -0.00251605)
(-0.0024654 4.12898e-05 4.75338e-07 -1.0183e-06 2.83786e-05 -0.00246577)
(-0.00240651 3.84726e-05 5.49306e-07 -1.10567e-06 3.43529e-05 -0.00240664)
(-0.00233899 3.54287e-05 6.12136e-07 -1.23484e-06 4.04009e-05 -0.00233883)
(-0.00226373 3.21569e-05 6.59135e-07 -1.40769e-06 4.63813e-05 -0.00226324)
(-0.00218169 2.87944e-05 7.00442e-07 -1.67048e-06 5.30397e-05 -0.00218078)
(-0.00209136 2.54654e-05 7.43471e-07 -2.09143e-06 6.10058e-05 -0.00208988)
(-0.00199174 2.21496e-05 7.81983e-07 -2.72606e-06 7.02299e-05 -0.00198951)
(-0.00188214 1.88681e-05 8.10872e-07 -3.65925e-06 8.07374e-05 -0.00187886)
(-0.00176186 1.56819e-05 8.26194e-07 -5.0168e-06 9.25663e-05 -0.00175713)
(-0.00163034 1.26711e-05 8.23743e-07 -6.96013e-06 0.000105542 -0.00162357)
(-0.00148747 9.91991e-06 7.99333e-07 -9.66233e-06 0.000119085 -0.00147794)
(-0.00133406 7.49901e-06 7.49914e-07 -1.32516e-05 0.000132088 -0.0013209)
(-0.00117221 5.44425e-06 6.73864e-07 -1.77133e-05 0.000142901 -0.00115454)
(-0.0010056 3.74163e-06 5.69436e-07 -2.27782e-05 0.000149577 -0.000982848)
(-0.000839637 2.33636e-06 4.32993e-07 -2.78876e-05 0.000150441 -0.000811763)
(-0.00068173 1.18935e-06 2.65666e-07 -3.24004e-05 0.000145042 -0.000649334)
(-0.000536793 3.21208e-07 8.59663e-08 -3.58796e-05 0.000134061 -0.000500913)
(-0.000409329 -1.71025e-07 -5.51232e-08 -3.85212e-05 0.000119516 -0.000370808)
(-0.000300956 -2.72939e-07 -1.08087e-07 -4.07992e-05 0.000103025 -0.000260158)
(-0.000209858 -1.64364e-07 -8.28661e-08 -4.25312e-05 8.43599e-05 -0.000167327)
(-0.000129811 -4.85114e-08 -3.2903e-08 -4.09009e-05 6.03032e-05 -8.89097e-05)
(-5.40497e-05 2.25264e-11 2.25264e-11 -2.70248e-05 2.70248e-05 -2.70248e-05)
(-7.59317e-06 9.45833e-10 1.67493e-09 -5.75727e-06 3.25112e-06 -1.83591e-06)
(-2.03153e-07 2.49041e-12 1.41629e-11 -1.9706e-07 3.46512e-08 -6.09309e-09)
(-0.00956967 7.95733e-06 2.17324e-09 -7.33044e-09 2.61359e-06 -0.00956967)
(-0.00955608 2.35224e-05 1.81986e-08 -6.36205e-08 7.39326e-06 -0.00955613)
(-0.00953231 3.83766e-05 4.4273e-08 -1.67189e-07 1.09969e-05 -0.00953245)
(-0.00950278 5.25002e-05 7.21011e-08 -3.07973e-07 1.30506e-05 -0.00950305)
(-0.00947177 6.58724e-05 9.416e-08 -4.7747e-07 1.35392e-05 -0.00947221)
(-0.0094427 7.84533e-05 1.05805e-07 -6.68995e-07 1.27348e-05 -0.00944333)
(-0.00941774 9.01916e-05 1.06154e-07 -8.76793e-07 1.10845e-05 -0.00941859)
(-0.00939776 0.000101027 9.79044e-08 -1.09487e-06 9.10731e-06 -0.00939884)
(-0.00938246 0.000110894 8.63664e-08 -1.31638e-06 7.30723e-06 -0.00938377)
(-0.00937069 0.000119732 7.7879e-08 -1.53381e-06 6.09512e-06 -0.00937221)
(-0.00936077 0.000127483 7.81106e-08 -1.73968e-06 5.73548e-06 -0.0093625)
(-0.00935093 0.000134101 9.04073e-08 -1.9274e-06 6.30412e-06 -0.00935285)
(-0.00933962 0.000139556 1.15049e-07 -2.09165e-06 7.69953e-06 -0.0093417)
(-0.00932571 0.000143832 1.50146e-07 -2.22852e-06 9.73509e-06 -0.00932792)
(-0.0093085 0.000146934 1.9383e-07 -2.33555e-06 1.22794e-05 -0.0093108)
(-0.00928741 0.000148885 2.46571e-07 -2.41222e-06 1.53811e-05 -0.00928977)
(-0.00926173 0.000149734 3.13066e-07 -2.46123e-06 1.93645e-05 -0.00926411)
(-0.00923037 0.000149569 4.00849e-07 -2.48994e-06 2.47374e-05 -0.00923272)
(-0.00919377 0.000148435 5.18148e-07 -2.50857e-06 3.20926e-05 -0.00919606)
(-0.00914795 0.000146333 6.74682e-07 -2.5353e-06 4.21765e-05 -0.0091501)
(-0.00908998 0.000143391 8.78432e-07 -2.60314e-06 5.56845e-05 -0.0090919)
(-0.00901687 0.000139712 1.13345e-06 -2.75834e-06 7.31465e-05 -0.00901844)
(-0.0089254 0.000135406 1.43876e-06 -3.06204e-06 9.48265e-05 -0.00892645)
(-0.00881284 0.000130569 1.78711e-06 -3.5855e-06 0.0001206 -0.00881312)
(-0.00867704 0.000125239 2.16613e-06 -4.40312e-06 0.000150033 -0.00867626)
(-0.0085165 0.000119271 2.55274e-06 -5.57062e-06 0.000182195 -0.00851427)
(-0.00833041 0.000112183 2.90525e-06 -7.09499e-06 0.000215591 -0.00832634)
(-0.0081194 0.000103592 3.18828e-06 -9.00674e-06 0.000249657 -0.00811304)
(-0.00788483 9.49196e-05 3.47192e-06 -1.16793e-05 0.000288021 -0.00787543)
(-0.00762219 8.75706e-05 3.84308e-06 -1.56597e-05 0.00033386 -0.00760854)
(-0.00732834 8.11743e-05 4.30141e-06 -2.14214e-05 0.000387239 -0.00730872)
(-0.00700045 7.56756e-05 4.87034e-06 -2.96975e-05 0.000448677 -0.00697239)
(-0.00663542 7.11845e-05 5.59965e-06 -4.15758e-05 0.000518757 -0.00659538)
(-0.0062303 6.77261e-05 6.55017e-06 -5.84808e-05 0.000596984 -0.00617331)
(-0.00578302 6.50638e-05 7.76816e-06 -8.20189e-05 0.000680748 -0.00570248)
(-0.00529331 6.25768e-05 9.23411e-06 -0.000113563 0.000764457 -0.00518126)
(-0.00476368 5.92195e-05 1.07769e-05 -0.000153465 0.000839118 -0.00461174)
(-0.00420056 5.36561e-05 1.1975e-05 -0.00020002 0.000893003 -0.00400198)
(-0.00361584 4.47179e-05 1.21399e-05 -0.000248788 0.000914239 -0.00336824)
(-0.00303032 3.23467e-05 1.05869e-05 -0.000293585 0.00089584 -0.0027375)
(-0.00246097 1.84771e-05 7.25291e-06 -0.00032873 0.000837044 -0.00213256)
(-0.00192775 7.22583e-06 3.41984e-06 -0.000352816 0.0007454 -0.001575)
(-0.00143355 1.45763e-06 8.48741e-07 -0.000362973 0.000623369 -0.00107058)
(-0.000954733 -5.81348e-09 -4.31596e-09 -0.000339239 0.000456946 -0.000615493)
(-0.000479646 2.71851e-10 2.71851e-10 -0.000239823 0.000239823 -0.000239823)
(-0.00012981 3.30051e-08 4.8662e-08 -8.89097e-05 6.03032e-05 -4.09008e-05)
(-1.37376e-05 3.92673e-09 1.02214e-08 -1.19709e-05 4.59882e-06 -1.76673e-06)
(-3.80787e-07 2.87517e-11 2.38309e-10 -3.75324e-07 4.52824e-08 -5.46344e-09)
(-0.0176203 1.2827e-05 4.84672e-09 -1.18533e-08 6.65792e-06 -0.0176203)
(-0.0176065 3.77853e-05 4.04123e-08 -1.01231e-07 1.88306e-05 -0.0176066)
(-0.0175825 6.12373e-05 9.7534e-08 -2.57883e-07 2.8004e-05 -0.0175827)
(-0.017553 8.30254e-05 1.57179e-07 -4.5562e-07 3.32303e-05 -0.0175533)
(-0.0175224 0.000103085 2.0279e-07 -6.74261e-07 3.44704e-05 -0.017523)
(-0.0174944 0.000121408 2.24956e-07 -9.02607e-07 3.24153e-05 -0.0174952)
(-0.0174713 0.000138024 2.22855e-07 -1.13595e-06 2.82091e-05 -0.0174723)
(-0.0174538 0.000152976 2.03225e-07 -1.37157e-06 2.3187e-05 -0.0174552)
(-0.0174418 0.000166298 1.778e-07 -1.6055e-06 1.86481e-05 -0.0174433)
(-0.0174337 0.000178009 1.59844e-07 -1.83165e-06 1.56546e-05 -0.0174355)
(-0.0174278 0.000188106 1.60762e-07 -2.04305e-06 1.48943e-05 -0.0174298)
(-0.0174221 0.000196567 1.87063e-07 -2.23359e-06 1.65796e-05 -0.0174243)
(-0.0174147 0.000203361 2.39177e-07 -2.39885e-06 2.04818e-05 -0.0174171)
(-0.0174043 0.000208469 3.13408e-07 -2.53639e-06 2.61651e-05 -0.0174067)
(-0.0173897 0.000211912 4.06297e-07 -2.6463e-06 3.3341e-05 -0.0173922)
(-0.01737 0.000213765 5.19133e-07 -2.73318e-06 4.21831e-05 -0.0173725)
(-0.0173441 0.000214196 6.61588e-07 -2.81077e-06 5.35703e-05 -0.0173466)
(-0.0173107 0.000213472 8.49267e-07 -2.90652e-06 6.88669e-05 -0.017313)
(-0.0172706 0.0002117 1.09787e-06 -3.05952e-06 8.95627e-05 -0.0172727)
(-0.0172186 0.000208982 1.42678e-06 -3.33908e-06 0.00011755 -0.0172203)
(-0.0171512 0.000205658 1.85521e-06 -3.86179e-06 0.000154706 -0.0171523)
(-0.0170651 0.000201978 2.3969e-06 -4.79382e-06 0.000202486 -0.0170651)
(-0.0169564 0.00019815 3.05898e-06 -6.35623e-06 0.000261705 -0.0169546)
(-0.0168216 0.000194294 3.83888e-06 -8.80934e-06 0.000332234 -0.0168173)
(-0.0166582 0.000190367 4.72606e-06 -1.24375e-05 0.000413302 -0.0166501)
(-0.0164636 0.000185811 5.68579e-06 -1.75003e-05 0.000503311 -0.0164503)
(-0.0162352 0.000178742 6.61361e-06 -2.41672e-05 0.000599896 -0.016215)
(-0.0159693 0.000166624 7.34756e-06 -3.27342e-05 0.000702826 -0.0159401)
(-0.0156613 0.000154866 8.13381e-06 -4.46186e-05 0.000820293 -0.0156198)
(-0.0153085 0.000149611 9.41925e-06 -6.19077e-05 0.000959995 -0.0152496)
(-0.0149066 0.000148762 1.12796e-05 -8.67027e-05 0.0011238 -0.0148228)
(-0.0144503 0.000152202 1.39631e-05 -0.00012222 0.00131461 -0.0143313)
(-0.0139342 0.000160371 1.78908e-05 -0.000173153 0.00153537 -0.0137648)
(-0.0133532 0.000173255 2.36087e-05 -0.000245716 0.00178641 -0.0131121)
(-0.0127027 0.000189709 3.16663e-05 -0.000347244 0.00206286 -0.0123613)
(-0.0119782 0.000206967 4.23398e-05 -0.000484879 0.00235199 -0.0115008)
(-0.0111745 0.000220345 5.51263e-05 -0.000662843 0.00263099 -0.0105209)
(-0.0102842 0.000223301 6.80087e-05 -0.000878261 0.0028663 -0.00941655)
(-0.00929714 0.000208074 7.66623e-05 -0.00111649 0.003016 -0.00819122)
(-0.00820223 0.000168015 7.4373e-05 -0.00134798 0.00303591 -0.00686248)
(-0.00697955 0.000105227 5.57515e-05 -0.00153184 0.0028874 -0.00545177)
(-0.00562285 4.32937e-05 2.76192e-05 -0.00162692 0.0025495 -0.00399687)
(-0.0040956 8.53826e-06 6.69664e-06 -0.00155988 0.00198882 -0.00253578)
(-0.00241498 1.51556e-09 1.51556e-09 -0.00120749 0.00120749 -0.00120749)
(-0.000954732 5.29611e-09 7.13372e-09 -0.000615494 0.000456945 -0.000339238)
(-0.000209858 8.30152e-08 1.6466e-07 -0.000167327 8.43598e-05 -4.25311e-05)
(-2.16039e-05 9.81667e-09 3.42522e-08 -1.99641e-05 5.72168e-06 -1.63989e-06)
(-6.15627e-07 1.05845e-10 1.16784e-09 -6.10613e-07 5.53417e-08 -5.01803e-09)
(-0.022592 1.34569e-05 6.80146e-09 -1.37868e-08 1.14185e-05 -0.022592)
(-0.0225843 3.94339e-05 5.63312e-08 -1.1494e-07 3.22615e-05 -0.0225843)
(-0.0225713 6.3324e-05 1.34405e-07 -2.7934e-07 4.79072e-05 -0.0225713)
(-0.0225561 8.48235e-05 2.13412e-07 -4.61766e-07 5.67497e-05 -0.0225563)
(-0.0225416 0.00010381 2.70509e-07 -6.31136e-07 5.87388e-05 -0.0225419)
(-0.0225302 0.000120337 2.94215e-07 -7.77416e-07 5.50843e-05 -0.0225307)
(-0.0225231 0.000134568 2.85476e-07 -9.05361e-07 4.77811e-05 -0.0225238)
(-0.0225209 0.000146707 2.55069e-07 -1.02376e-06 3.91556e-05 -0.0225218)
(-0.0225232 0.000156951 2.19287e-07 -1.13767e-06 3.14687e-05 -0.0225242)
(-0.0225288 0.000165457 1.95128e-07 -1.24649e-06 2.65688e-05 -0.02253)
(-0.0225365 0.000172326 1.96206e-07 -1.34691e-06 2.56595e-05 -0.0225378)
(-0.0225448 0.000177612 2.29627e-07 -1.43695e-06 2.91471e-05 -0.0225461)
(-0.0225521 0.000181328 2.95217e-07 -1.51773e-06 3.67166e-05 -0.0225535)
(-0.0225572 0.000183481 3.88235e-07 -1.59344e-06 4.77294e-05 -0.0225585)
(-0.0225587 0.000184114 5.04525e-07 -1.67206e-06 6.18168e-05 -0.02256)
(-0.0225554 0.000183335 6.45414e-07 -1.76973e-06 7.94032e-05 -0.0225566)
(-0.0225458 0.000181331 8.21185e-07 -1.9208e-06 0.0001021 -0.0225468)
(-0.0225289 0.000178304 1.04732e-06 -2.18848e-06 0.000132325 -0.0225295)
(-0.0225054 0.000174561 1.33892e-06 -2.67801e-06 0.000172611 -0.0225054)
(-0.0224706 0.000170439 1.71567e-06 -3.56959e-06 0.000226171 -0.0224696)
(-0.0224219 0.000166209 2.19667e-06 -5.14803e-06 0.000296282 -0.0224192)
(-0.0223569 0.000162132 2.79667e-06 -7.82624e-06 0.000385528 -0.0223514)
(-0.0222728 0.000158385 3.52487e-06 -1.21529e-05 0.000495439 -0.0222629)
(-0.0221672 0.000154928 4.37879e-06 -1.87772e-05 0.000626021 -0.0221506)
(-0.0220385 0.000151573 5.34649e-06 -2.84301e-05 0.000776403 -0.0220121)
(-0.021885 0.000147614 6.38643e-06 -4.18853e-05 0.000945069 -0.0218451)
(-0.021704 0.000139149 7.26986e-06 -5.99758e-05 0.00113085 -0.0216458)
(-0.0214906 0.000116543 7.27942e-06 -8.41525e-05 0.00133712 -0.0214077)
(-0.0212382 9.70469e-05 7.2335e-06 -0.000117786 0.00157427 -0.0211213)
(-0.0209453 9.45394e-05 8.42815e-06 -0.000165583 0.00185254 -0.0207806)
(-0.02061 9.98469e-05 1.06762e-05 -0.000233461 0.00217882 -0.0203775)
(-0.0202295 0.000112729 1.45012e-05 -0.000329943 0.00255992 -0.0199008)
(-0.0198028 0.000133963 2.07972e-05 -0.000466967 0.00300195 -0.0193377)
(-0.0193312 0.000163564 3.07195e-05 -0.000660086 0.00350695 -0.018674)
(-0.0188169 0.000200171 4.55282e-05 -0.000927795 0.00406933 -0.0178936)
(-0.0182599 0.000240965 6.63204e-05 -0.00128922 0.00467174 -0.0169775)
(-0.0176506 0.000281716 9.35841e-05 -0.00175919 0.00528067 -0.0159014)
(-0.0169606 0.000316262 0.000126312 -0.00234008 0.00584201 -0.0146342)
(-0.0161276 0.000333158 0.000159282 -0.003009 0.006276 -0.0131355)
(-0.0150213 0.000306781 0.000174852 -0.0036915 0.00646223 -0.0113464)
(-0.0134006 0.000205455 0.000139451 -0.00423104 0.00622689 -0.00917879)
(-0.0110098 7.31655e-05 5.96034e-05 -0.0043927 0.00539121 -0.00661873)
(-0.00773029 4.44391e-09 4.44391e-09 -0.00386515 0.00386514 -0.00386514)
(-0.0040956 -6.69217e-06 -8.53257e-06 -0.00253578 0.00198882 -0.00155987)
(-0.00143355 -8.47437e-07 -1.45539e-06 -0.00107058 0.000623367 -0.000362972)
(-0.000300956 1.08281e-07 2.73429e-07 -0.000260158 0.000103025 -4.07991e-05)
(-3.15252e-05 1.89658e-08 8.39649e-08 -2.99951e-05 6.77518e-06 -1.5306e-06)
(-9.10033e-07 2.61843e-10 3.64635e-09 -9.05379e-07 6.50138e-08 -4.6833e-09)
(-0.0240234 1.04124e-05 6.82948e-09 -1.48479e-08 1.57569e-05 -0.0240234)
(-0.0240233 3.02909e-05 5.60081e-08 -1.20325e-07 4.44192e-05 -0.0240233)
(-0.0240233 4.80299e-05 1.31514e-07 -2.76141e-07 6.57792e-05 -0.0240232)
(-0.0240232 6.32567e-05 2.04556e-07 -4.17777e-07 7.76843e-05 -0.0240231)
(-0.0240231 7.57884e-05 2.52663e-07 -5.06095e-07 8.00873e-05 -0.0240231)
(-0.0240231 8.56841e-05 2.66517e-07 -5.38037e-07 7.47222e-05 -0.0240231)
(-0.024023 9.31498e-05 2.49788e-07 -5.33937e-07 6.4419e-05 -0.0240232)
(-0.0240229 9.84524e-05 2.15011e-07 -5.18062e-07 5.24635e-05 -0.0240232)
(-0.0240229 0.00010186 1.78232e-07 -5.05454e-07 4.20342e-05 -0.0240232)
(-0.0240228 0.000103606 1.54053e-07 -4.99949e-07 3.57197e-05 -0.0240232)
(-0.0240228 0.000103872 1.52255e-07 -5.00745e-07 3.52125e-05 -0.0240232)
(-0.0240227 0.000102784 1.7603e-07 -5.10237e-07 4.11415e-05 -0.0240231)
(-0.0240226 0.000100413 2.22401e-07 -5.37567e-07 5.32067e-05 -0.0240229)
(-0.0240226 9.67826e-05 2.84939e-07 -5.98145e-07 7.07247e-05 -0.0240227)
(-0.0240225 9.1912e-05 3.57402e-07 -7.14897e-07 9.34105e-05 -0.0240225)
(-0.0240223 8.5842e-05 4.36152e-07 -9.26885e-07 0.000122051 -0.024022)
(-0.0240222 7.86422e-05 5.20494e-07 -1.3097e-06 0.000158984 -0.0240214)
(-0.024022 7.03217e-05 6.07598e-07 -1.99908e-06 0.00020754 -0.0240204)
(-0.0240217 6.11833e-05 6.91067e-07 -3.22009e-06 0.000271291 -0.0240188)
(-0.0240213 5.15726e-05 7.6179e-07 -5.35081e-06 0.000354748 -0.0240162)
(-0.0240209 4.14903e-05 7.99123e-07 -8.97934e-06 0.000462483 -0.0240121)
(-0.0240204 3.09588e-05 7.71631e-07 -1.49528e-05 0.000598324 -0.0240055)
(-0.0240198 1.98779e-05 6.33629e-07 -2.43979e-05 0.000764881 -0.0239954)
(-0.0240191 7.77096e-06 3.12053e-07 -3.86716e-05 0.000962965 -0.0239805)
(-0.0240183 -5.88294e-06 -2.9283e-07 -5.93639e-05 0.00119259 -0.023959)
(-0.0240174 -2.12879e-05 -1.29329e-06 -8.83376e-05 0.00145375 -0.0239291)
(-0.0240162 -3.81098e-05 -2.78839e-06 -0.000127945 0.00174784 -0.0238884)
(-0.0239888 -5.70946e-05 -4.98648e-06 -0.000181733 0.00207925 -0.0238074)
(-0.023788 -7.45203e-05 -7.75003e-06 -0.000254769 0.00244745 -0.0235337)
(-0.0235644 -9.26593e-05 -1.14856e-05 -0.000356957 0.00287674 -0.0232082)
(-0.0233224 -0.000111228 -1.64496e-05 -0.000499722 0.00337534 -0.0228237)
(-0.0230685 -0.000130088 -2.29803e-05 -0.000698853 0.0039518 -0.0223712)
(-0.0228139 -0.000148115 -3.12817e-05 -0.000975163 0.00461252 -0.0218407)
(-0.0225728 -0.000162761 -4.11019e-05 -0.00135444 0.00535856 -0.0212209)
(-0.0223593 -0.000168891 -5.09444e-05 -0.00186614 0.00618199 -0.0204959)
(-0.0221793 -0.000157891 -5.67668e-05 -0.00254007 0.00706139 -0.0196417)
(-0.0220189 -0.000118678 -5.07062e-05 -0.00339982 0.0079555 -0.0186206)
(-0.0218257 -4.2434e-05 -2.14761e-05 -0.00445063 0.00879368 -0.0173753)
(-0.0214826 6.46908e-05 3.86859e-05 -0.00565914 0.0094628 -0.015824)
(-0.0207603 0.000142915 0.000100917 -0.00690889 0.00978199 -0.0138543)
(-0.0191463 0.000126982 0.000106098 -0.00787274 0.00942067 -0.0112764)
(-0.0159465 6.52469e-09 6.5247e-09 -0.00797325 0.00797324 -0.00797324)
(-0.0110098 -5.95932e-05 -7.31531e-05 -0.00661873 0.0053912 -0.00439268)
(-0.00562284 -2.76139e-05 -4.32855e-05 -0.00399686 0.00254949 -0.00162691)
(-0.00192775 -3.41828e-06 -7.22254e-06 -0.001575 0.000745398 -0.000352814)
(-0.000409329 5.53657e-08 1.71778e-07 -0.000370808 0.000119515 -3.85211e-05)
(-4.36627e-05 3.00922e-08 1.63216e-07 -4.22279e-05 7.78545e-06 -1.43603e-06)
(-1.26722e-06 4.9918e-10 8.48207e-09 -1.2629e-06 7.432e-08 -4.43079e-09)
(-0.0240238 6.19777e-06 5.08184e-09 -1.77504e-08 1.96982e-05 -0.0240238)
(-0.0240238 1.77975e-05 4.10216e-08 -1.40813e-07 5.53724e-05 -0.0240237)
(-0.0240238 2.74957e-05 9.35106e-08 -3.09332e-07 8.17021e-05 -0.0240236)
(-0.0240238 3.48439e-05 1.394e-07 -4.35045e-07 9.61102e-05 -0.0240235)
(-0.0240238 3.96151e-05 1.62609e-07 -4.7009e-07 9.86094e-05 -0.0240235)
(-0.0240238 4.18385e-05 1.59336e-07 -4.21293e-07 9.14902e-05 -0.0240235)
(-0.0240239 4.17049e-05 1.36118e-07 -3.28312e-07 7.84088e-05 -0.0240237)
(-0.0240239 3.94781e-05 1.04459e-07 -2.3307e-07 6.35665e-05 -0.0240238)
(-0.024024 3.54378e-05 7.52316e-08 -1.60545e-07 5.10009e-05 -0.024024)
(-0.0240241 2.9843e-05 5.46529e-08 -1.17644e-07 4.39965e-05 -0.0240241)
(-0.0240243 2.29106e-05 4.2658e-08 -1.05135e-07 4.47314e-05 -0.0240242)
(-0.0240244 1.47889e-05 3.33154e-08 -1.31022e-07 5.41201e-05 -0.0240243)
(-0.0240246 5.52854e-06 1.65707e-08 -2.17101e-07 7.2008e-05 -0.0240244)
(-0.0240247 -4.91842e-06 -2.00294e-08 -3.99422e-07 9.78347e-05 -0.0240243)
(-0.0240248 -1.66627e-05 -9.12368e-08 -7.31824e-07 0.000131544 -0.0240241)
(-0.0240249 -2.98281e-05 -2.16476e-07 -1.30237e-06 0.00017435 -0.0240237)
(-0.024025 -4.44771e-05 -4.2445e-07 -2.27013e-06 0.000229252 -0.0240229)
(-0.024025 -6.06516e-05 -7.5831e-07 -3.90809e-06 0.00030033 -0.0240214)
(-0.0240249 -7.82748e-05 -1.27773e-06 -6.65514e-06 0.000392071 -0.0240188)
(-0.0240248 -9.71883e-05 -2.06398e-06 -1.12238e-05 0.000509984 -0.0240143)
(-0.0240245 -0.000117418 -3.22541e-06 -1.86889e-05 0.000659444 -0.024007)
(-0.0240241 -0.000139031 -4.89614e-06 -3.05628e-05 0.000844988 -0.0239952)
(-0.0240235 -0.000162219 -7.2377e-06 -4.88254e-05 0.00106973 -0.0239769)
(-0.0240228 -0.000187662 -1.04586e-05 -7.58534e-05 0.00133467 -0.0239499)
(-0.0240218 -0.000216012 -1.48176e-05 -0.000114455 0.00164008 -0.0239112)
(-0.0240205 -0.000246989 -2.05701e-05 -0.000168019 0.00198673 -0.0238576)
(-0.0240189 -0.000275963 -2.75863e-05 -0.000240843 0.00237726 -0.0237845)
(-0.0240172 -0.000292226 -3.47719e-05 -0.000338907 0.0028179 -0.0236855)
(-0.0240153 -0.000317172 -4.47711e-05 -0.000473437 0.0033237 -0.0235504)
(-0.024013 -0.00036834 -6.16216e-05 -0.000659582 0.0039079 -0.0233651)
(-0.0240101 -0.000431553 -8.54805e-05 -0.000914512 0.00457627 -0.0231117)
(-0.0240063 -0.000502175 -0.000117659 -0.00126034 0.00533193 -0.0227682)
(-0.024002 -0.000574272 -0.000158959 -0.00172293 0.00617097 -0.0223086)
(-0.0239973 -0.000637865 -0.000208236 -0.00232995 0.00707959 -0.0217048)
(-0.0239927 -0.000678147 -0.000260543 -0.003108 0.00803233 -0.0209287)
(-0.023989 -0.000677102 -0.00030545 -0.00407937 0.0089919 -0.0199557)
(-0.0239867 -0.00061801 -0.000326692 -0.00525922 0.00991045 -0.0187682)
(-0.0239854 -0.000489882 -0.000303062 -0.00665269 0.0107313 -0.0173604)
(-0.0239834 -0.000281534 -0.000203734 -0.00824796 0.0113907 -0.0157455)
(-0.0239793 -7.42568e-05 -6.29836e-05 -0.0100335 0.011829 -0.0139466)
(-0.0226364 7.4581e-09 7.4581e-09 -0.0113182 0.0113182 -0.0113182)
(-0.0191463 -0.000106086 -0.000126968 -0.0112764 0.00942066 -0.00787272)
(-0.0134006 -0.000139441 -0.00020544 -0.00917878 0.00622688 -0.00423103)
(-0.00697953 -5.57457e-05 -0.000105216 -0.00545176 0.00288739 -0.00153184)
(-0.00246097 -7.25111e-06 -1.84725e-05 -0.00213256 0.000837042 -0.000328728)
(-0.000536792 -8.56717e-08 -3.20108e-07 -0.000500913 0.000134061 -3.58795e-05)
(-5.81314e-05 3.99908e-08 2.60546e-07 -5.67946e-05 8.71712e-06 -1.33917e-06)
(-1.6899e-06 7.60683e-10 1.54747e-08 -1.68597e-06 8.28694e-08 -4.21561e-09)
(-0.0240223 1.863e-06 1.84312e-09 -2.36567e-08 2.37659e-05 -0.0240222)
(-0.0240222 4.99093e-06 1.38554e-08 -1.8617e-07 6.6688e-05 -0.0240221)
(-0.0240222 6.48625e-06 2.64953e-08 -4.02577e-07 9.81253e-05 -0.0240218)
(-0.0240222 5.762e-06 2.75975e-08 -5.52439e-07 0.000115054 -0.0240217)
(-0.0240223 2.53678e-06 1.24218e-08 -5.76247e-07 0.000117626 -0.0240217)
(-0.0240223 -3.20949e-06 -1.4532e-08 -4.92902e-07 0.000108766 -0.0240218)
(-0.0240224 -1.13139e-05 -4.38177e-08 -3.65643e-07 9.3035e-05 -0.0240221)