/*--------------------------------*- C++ -*----------------------------------*\
| =========                 |                                                 |
| \\      /  F ield         | OpenFOAM: The Open Source CFD Toolbox           |
|  \\    /   O peration     | Version:  2412                                  |
|   \\  /    A nd           | Website:  www.openfoam.com                      |
|    \\/     M anipulation  |                                                 |
\*---------------------------------------------------------------------------*/
FoamFile
{
    version     2.0;
    format      ascii;
    arch        "LSB;label=32;scalar=64";
    class       volSymmTensorField;
    location    "2130";
    object      Tij5;
}
// * * * * * * * * * * * * * * * * * * * * * * * * * * * * * * * * * * * * * //

dimensions      [0 0 0 0 0 0 0];

internalField   nonuniform List<symmTensor> 
2304
(
(1.7655e-10 -1.7913e-13 2.48112e-13 1.82807e-16 -1.90768e-14 -1.76551e-10)
(1.77206e-10 -5.35796e-13 2.50742e-13 1.61689e-15 2.37815e-15 -1.77208e-10)
(1.76721e-10 -8.8489e-13 2.50955e-13 4.40727e-15 4.91079e-14 -1.76725e-10)
(1.76043e-10 -1.23017e-12 2.509e-13 8.55288e-15 5.96913e-14 -1.76052e-10)
(1.75139e-10 -1.57063e-12 2.50332e-13 1.40165e-14 6.66644e-14 -1.75153e-10)
(1.73961e-10 -1.90194e-12 2.48919e-13 2.06952e-14 7.13182e-14 -1.73982e-10)
(1.72474e-10 -2.21783e-12 2.46429e-13 2.83874e-14 7.47942e-14 -1.72502e-10)
(1.70656e-10 -2.5115e-12 2.42756e-13 3.67983e-14 7.84029e-14 -1.70692e-10)
(1.68493e-10 -2.77643e-12 2.37887e-13 4.5562e-14 8.33169e-14 -1.68538e-10)
(1.65992e-10 -3.00748e-12 2.31928e-13 5.42869e-14 9.04215e-14 -1.66046e-10)
(1.63163e-10 -3.20104e-12 2.25027e-13 6.25926e-14 1.00203e-13 -1.63226e-10)
(1.60035e-10 -3.35552e-12 2.17395e-13 7.01555e-14 1.12851e-13 -1.60106e-10)
(1.56622e-10 -3.47071e-12 2.09189e-13 7.67228e-14 1.28242e-13 -1.56699e-10)
(1.52918e-10 -3.54735e-12 2.00506e-13 8.21222e-14 1.46712e-13 -1.53e-10)
(1.48858e-10 -3.58548e-12 1.91265e-13 8.62139e-14 1.68559e-13 -1.48944e-10)
(1.44365e-10 -3.58517e-12 1.81379e-13 8.89029e-14 1.95336e-13 -1.44453e-10)
(1.39286e-10 -3.54425e-12 1.70553e-13 9.00571e-14 2.27517e-13 -1.39376e-10)
(1.33607e-10 -3.46233e-12 1.58755e-13 8.95673e-14 2.6145e-13 -1.33697e-10)
(1.27386e-10 -3.34246e-12 1.46428e-13 8.74614e-14 3.04472e-13 -1.27474e-10)
(1.20421e-10 -3.18166e-12 1.33292e-13 8.36477e-14 3.57852e-13 -1.20504e-10)
(1.12858e-10 -2.98546e-12 1.19771e-13 7.82591e-14 4.18661e-13 -1.12936e-10)
(1.04745e-10 -2.75729e-12 1.06094e-13 7.14101e-14 4.8515e-13 -1.04816e-10)
(9.6394e-11 -2.50737e-12 9.28501e-14 6.34353e-14 5.51236e-13 -9.64574e-11)
(8.80938e-11 -2.24575e-12 8.04983e-14 5.47248e-14 6.12013e-13 -8.81485e-11)
(8.02566e-11 -1.98474e-12 6.944e-14 4.57866e-14 6.56464e-13 -8.03024e-11)
(7.33356e-11 -1.73705e-12 6.02325e-14 3.71479e-14 6.83486e-13 -7.33728e-11)
(6.72561e-11 -1.50795e-12 5.31448e-14 2.9065e-14 7.20664e-13 -6.72851e-11)
(6.00898e-11 -1.28837e-12 4.84959e-14 2.04916e-14 9.41362e-13 -6.01102e-11)
(4.72897e-11 -1.01199e-12 3.77164e-14 1.09592e-14 1.15778e-12 -4.73006e-11)
(3.35173e-11 -7.46592e-13 2.5764e-14 2.44162e-15 1.22325e-12 -3.35197e-11)
(1.96362e-11 -5.03172e-13 1.68843e-14 -6.29e-15 1.28041e-12 -1.96299e-11)
(5.96118e-12 -2.95237e-13 1.1597e-14 -1.49376e-14 1.30619e-12 -5.94624e-12)
(-6.79287e-12 -1.36384e-13 1.02399e-14 -2.29515e-14 1.26811e-12 6.81582e-12)
(-1.73672e-11 -3.8041e-14 1.22065e-14 -2.90463e-14 1.12517e-12 1.73962e-11)
(-2.41976e-11 -1.06615e-15 1.53026e-14 -3.09995e-14 8.49462e-13 2.42286e-11)
(-2.5889e-11 -8.68024e-15 1.61597e-14 -2.55233e-14 4.41403e-13 2.59146e-11)
(-2.18511e-11 -2.76679e-14 1.26694e-14 -9.29689e-15 -4.57154e-14 2.18604e-11)
(-1.29894e-11 -2.37538e-14 7.29823e-15 1.73788e-14 -4.82361e-13 1.29721e-11)
(-2.0708e-12 1.18482e-14 7.1536e-15 4.72121e-14 -7.14415e-13 2.02359e-12)
(7.05916e-12 5.22614e-14 1.56564e-14 6.23852e-14 -6.0508e-13 -7.12155e-12)
(1.07768e-11 5.83207e-14 2.3231e-14 4.76813e-14 -2.1708e-13 -1.08244e-11)
(8.8552e-12 3.26272e-14 1.85477e-14 1.74225e-14 1.13517e-13 -8.87262e-12)
(4.87667e-12 1.01078e-14 8.26428e-15 -2.20013e-15 1.90386e-13 -4.87447e-12)
(1.90129e-12 1.73705e-15 2.13859e-15 -6.35091e-15 1.20911e-13 -1.89494e-12)
(5.03584e-13 1.31994e-16 2.96966e-16 -4.03749e-15 4.68674e-14 -4.99547e-13)
(7.17621e-14 1.68023e-19 1.45368e-17 -1.34645e-15 1.00196e-14 -7.04157e-14)
(1.92871e-15 -6.71932e-20 1.16253e-20 -8.71815e-18 3.10828e-16 -1.91999e-15)
(1.3566e-16 -1.18482e-21 1.33471e-21 -6.75081e-17 6.78302e-17 -6.81523e-17)
(-2.84545e-08 3.31013e-11 3.22474e-11 -3.57665e-14 -1.04944e-11 2.84545e-08)
(-2.8335e-08 9.85441e-11 3.20853e-11 -3.25536e-13 -1.99716e-11 2.83353e-08)
(-2.73351e-08 1.5904e-10 3.00723e-11 -8.8858e-13 -2.07786e-11 2.7336e-08)
(-2.61361e-08 2.14853e-10 2.77331e-11 -1.6988e-12 -2.1386e-11 2.61378e-08)
(-2.49419e-08 2.66347e-10 2.5526e-11 -2.73836e-12 -1.58563e-11 2.49446e-08)
(-2.39129e-08 3.14171e-10 2.37609e-11 -3.97425e-12 -4.83894e-12 2.39169e-08)
(-2.31532e-08 3.59077e-10 2.26063e-11 -5.36087e-12 1.02998e-11 2.31585e-08)
(-2.27088e-08 4.01677e-10 2.21146e-11 -6.84302e-12 2.80441e-11 2.27156e-08)
(-2.25763e-08 4.4224e-10 2.22542e-11 -8.35977e-12 4.67751e-11 2.25846e-08)
(-2.27116e-08 4.80562e-10 2.29338e-11 -9.84829e-12 6.51133e-11 2.27214e-08)
(-2.3049e-08 5.16063e-10 2.40323e-11 -1.12482e-11 8.19381e-11 2.30603e-08)
(-2.35114e-08 5.47847e-10 2.54132e-11 -1.25035e-11 9.68587e-11 2.35239e-08)
(-2.40368e-08 5.75118e-10 2.69818e-11 -1.35686e-11 1.10733e-10 2.40504e-08)
(-2.45933e-08 5.97362e-10 2.87207e-11 -1.44087e-11 1.25743e-10 2.46077e-08)
(-2.51887e-08 6.14583e-10 3.07025e-11 -1.50034e-11 1.44309e-10 2.52038e-08)
(-2.58526e-08 6.26944e-10 3.30703e-11 -1.53422e-11 1.6931e-10 2.58679e-08)
(-2.66345e-08 6.34877e-10 3.59541e-11 -1.54277e-11 1.99906e-10 2.66499e-08)
(-2.75234e-08 6.38049e-10 3.92851e-11 -1.52717e-11 2.31666e-10 2.75387e-08)
(-2.84817e-08 6.35737e-10 4.31256e-11 -1.49179e-11 2.68228e-10 2.84966e-08)
(-2.94901e-08 6.27511e-10 4.74294e-11 -1.44311e-11 3.06481e-10 2.95045e-08)
(-3.04143e-08 6.11279e-10 5.17499e-11 -1.38602e-11 3.39608e-10 3.04281e-08)
(-3.11325e-08 5.86176e-10 5.56334e-11 -1.32849e-11 3.61463e-10 3.11458e-08)
(-3.14447e-08 5.5068e-10 5.8296e-11 -1.27192e-11 3.64131e-10 3.14574e-08)
(-3.11802e-08 5.04837e-10 5.90371e-11 -1.21316e-11 3.42826e-10 3.11923e-08)
(-3.01761e-08 4.49449e-10 5.71244e-11 -1.13387e-11 2.90947e-10 3.01874e-08)
(-2.83102e-08 3.86292e-10 5.24258e-11 -1.03207e-11 2.24547e-10 2.83205e-08)
(-2.57301e-08 3.19878e-10 4.70536e-11 -1.0719e-11 2.38193e-10 2.57409e-08)
(-2.34234e-08 2.58779e-10 4.66207e-11 -1.75593e-11 5.09353e-10 2.3441e-08)
(-2.2954e-08 2.18538e-10 5.14332e-11 -2.84382e-11 8.05018e-10 2.29824e-08)
(-2.28925e-08 1.81187e-10 5.45617e-11 -3.83578e-11 9.2927e-10 2.29309e-08)
(-2.28594e-08 1.46404e-10 5.72774e-11 -5.09798e-11 1.01792e-09 2.29104e-08)
(-2.28293e-08 1.14067e-10 5.9733e-11 -6.70866e-11 1.07517e-09 2.28964e-08)
(-2.26179e-08 8.36968e-11 6.09197e-11 -8.42473e-11 1.04728e-09 2.27022e-08)
(-2.18517e-08 5.4783e-11 5.9121e-11 -9.59716e-11 8.71601e-10 2.19477e-08)
(-2.00687e-08 2.8229e-11 5.24558e-11 -9.05876e-11 5.06471e-10 2.01592e-08)
(-1.68961e-08 7.06471e-12 4.00801e-11 -5.21548e-11 -3.7626e-11 1.69482e-08)
(-1.22837e-08 -4.61482e-12 2.41252e-11 3.25545e-11 -6.65605e-10 1.22511e-08)
(-6.71109e-09 -4.905e-12 1.07955e-11 1.5748e-10 -1.18402e-09 6.55361e-09)
(-1.21855e-09 2.48215e-12 7.43911e-12 2.80506e-10 -1.36301e-09 9.38044e-10)
(2.9034e-09 9.41408e-12 1.45734e-11 3.20825e-10 -1.0418e-09 -3.22422e-09)
(4.54784e-09 9.58756e-12 2.11824e-11 2.28418e-10 -3.77467e-10 -4.77626e-09)
(3.82734e-09 4.92426e-12 1.70932e-11 7.43221e-11 1.58133e-10 -3.90167e-09)
(2.19949e-09 1.30425e-12 8.00714e-12 -2.79639e-11 3.07151e-10 -2.17153e-09)
(9.23112e-10 1.05916e-13 2.30995e-12 -5.15413e-11 2.14814e-10 -8.71571e-10)
(2.82304e-10 -4.01663e-14 4.04676e-13 -3.55972e-11 9.37187e-11 -2.46707e-10)
(5.52239e-11 -1.19925e-14 3.4803e-14 -1.43945e-11 2.42735e-11 -4.08294e-11)
(3.36771e-12 -5.23265e-16 5.22718e-16 -1.68387e-12 1.68386e-12 -1.68384e-12)
(1.93095e-15 -1.16878e-20 6.73603e-20 -1.92127e-15 3.12594e-16 -9.6879e-18)
(-2.15865e-06 2.1533e-09 7.83294e-09 -2.06112e-12 -4.02465e-10 2.15866e-06)
(-2.15663e-06 6.39009e-09 7.84165e-09 -1.71192e-11 -2.19503e-09 2.15664e-06)
(-2.12924e-06 1.0419e-08 7.68088e-09 -4.56192e-11 -4.05891e-09 2.12929e-06)
(-2.09629e-06 1.42682e-08 7.49277e-09 -8.95513e-11 -4.66267e-09 2.09638e-06)
(-2.06349e-06 1.79367e-08 7.31082e-09 -1.47691e-10 -4.5865e-09 2.06364e-06)
(-2.03543e-06 2.14231e-08 7.16273e-09 -2.17989e-10 -3.92732e-09 2.03565e-06)
(-2.01529e-06 2.47217e-08 7.06743e-09 -2.9717e-10 -2.84678e-09 2.01559e-06)
(-2.00467e-06 2.78216e-08 7.03461e-09 -3.81371e-10 -1.53339e-09 2.00505e-06)
(-2.00373e-06 3.07061e-08 7.06559e-09 -4.66759e-10 -1.80983e-10 2.0042e-06)
(-2.01141e-06 3.33526e-08 7.15461e-09 -5.49928e-10 1.04442e-09 2.01196e-06)
(-2.02595e-06 3.57354e-08 7.29168e-09 -6.28014e-10 2.01711e-09 2.02657e-06)
(-2.04513e-06 3.78276e-08 7.46427e-09 -6.98608e-10 2.69134e-09 2.04583e-06)
(-2.06716e-06 3.96095e-08 7.66308e-09 -7.59778e-10 3.13618e-09 2.06792e-06)
(-2.09113e-06 4.10722e-08 7.88598e-09 -8.10118e-10 3.52289e-09 2.09194e-06)
(-2.11733e-06 4.22205e-08 8.14011e-09 -8.4892e-10 4.04264e-09 2.11818e-06)
(-2.14681e-06 4.30649e-08 8.43935e-09 -8.76219e-10 4.87558e-09 2.14769e-06)
(-2.18117e-06 4.36212e-08 8.80007e-09 -8.92609e-10 5.94882e-09 2.18206e-06)
(-2.22004e-06 4.3885e-08 9.22262e-09 -8.99066e-10 6.9958e-09 2.22094e-06)
(-2.26162e-06 4.38265e-08 9.69984e-09 -8.97899e-10 8.01298e-09 2.26252e-06)
(-2.30575e-06 4.34488e-08 1.02375e-08 -8.91572e-10 8.59346e-09 2.30664e-06)
(-2.34778e-06 4.27035e-08 1.08005e-08 -8.80294e-10 8.23906e-09 2.34866e-06)
(-2.38306e-06 4.15681e-08 1.13505e-08 -8.60871e-10 6.47557e-09 2.38392e-06)
(-2.40423e-06 4.00009e-08 1.18191e-08 -8.21485e-10 2.81526e-09 2.40506e-06)
(-2.40465e-06 3.79976e-08 1.21396e-08 -7.42731e-10 -2.93274e-09 2.4054e-06)
(-2.37806e-06 3.55659e-08 1.22402e-08 -5.92058e-10 -1.09523e-08 2.37866e-06)
(-2.31911e-06 3.27248e-08 1.2071e-08 -3.59317e-10 -2.00528e-08 2.31946e-06)
(-2.22891e-06 2.95572e-08 1.1713e-08 -2.19036e-10 -2.42083e-08 2.22913e-06)
(-2.13185e-06 2.6267e-08 1.15303e-08 -6.66951e-10 -1.34593e-08 2.13252e-06)
(-2.0706e-06 2.327e-08 1.17686e-08 -1.44864e-09 -7.91789e-10 2.07205e-06)
(-2.00591e-06 2.02332e-08 1.18988e-08 -2.06249e-09 2.52172e-09 2.00798e-06)
(-1.92688e-06 1.72173e-08 1.19185e-08 -2.83484e-09 3.90515e-09 1.92971e-06)
(-1.83242e-06 1.42558e-08 1.18213e-08 -3.85199e-09 4.05848e-09 1.83627e-06)
(-1.7162e-06 1.13804e-08 1.14924e-08 -4.86223e-09 7.47916e-11 1.72106e-06)
(-1.56672e-06 8.62936e-09 1.07385e-08 -5.22561e-09 -1.12907e-08 1.57195e-06)
(-1.37135e-06 6.07689e-09 9.35036e-09 -3.81702e-09 -3.19052e-08 1.37517e-06)
(-1.12262e-06 3.84467e-09 7.23184e-09 8.58376e-10 -6.04595e-08 1.12177e-06)
(-8.25942e-07 2.07755e-09 4.59034e-09 9.94455e-09 -9.06986e-08 8.15998e-07)
(-5.05818e-07 8.70662e-10 2.06302e-09 2.26574e-08 -1.1121e-07 4.83161e-07)
(-2.04924e-07 1.85947e-10 5.02456e-10 3.46884e-08 -1.09361e-07 1.70236e-07)
(2.95346e-08 -1.39812e-10 2.99656e-10 3.77251e-08 -7.69326e-08 -6.72597e-08)
(1.51951e-07 -2.5386e-10 8.0372e-10 2.60643e-08 -2.48724e-08 -1.78016e-07)
(1.56099e-07 -2.31557e-10 8.99347e-10 7.52371e-09 1.46973e-08 -1.63623e-07)
(1.00327e-07 -1.42832e-10 5.10743e-10 -4.65005e-09 2.48156e-08 -9.56765e-08)
(4.62627e-08 -6.28643e-11 1.71068e-10 -7.11931e-09 1.69278e-08 -3.91434e-08)
(1.4839e-08 -1.82173e-11 3.28203e-11 -4.42939e-09 6.79547e-09 -1.04096e-08)
(2.24554e-09 -2.24369e-12 2.24278e-12 -1.12287e-09 1.12277e-09 -1.12266e-09)
(5.52364e-11 -3.4828e-14 1.1981e-14 -4.08425e-11 2.42766e-11 -1.43939e-11)
(7.18073e-14 -1.45567e-17 -1.74251e-19 -7.04604e-14 1.00247e-14 -1.34688e-15)
(1.41236e-05 -1.0264e-08 5.32654e-08 7.61674e-12 1.31196e-09 -1.41236e-05)
(1.41562e-05 -3.03422e-08 5.35662e-08 8.1104e-11 -5.96646e-09 -1.41563e-05)
(1.40524e-05 -4.8979e-08 5.28594e-08 2.22417e-10 -1.62948e-08 -1.40526e-05)
(1.39204e-05 -6.6208e-08 5.2003e-08 3.81352e-10 -1.79157e-08 -1.39207e-05)
(1.37655e-05 -8.1988e-08 5.1029e-08 5.4708e-10 -1.58688e-08 -1.3766e-05)
(1.35896e-05 -9.63336e-08 4.99525e-08 7.14081e-10 -1.03093e-08 -1.35903e-05)
(1.3391e-05 -1.09254e-07 4.87594e-08 8.85963e-10 -1.72838e-09 -1.33919e-05)
(1.31654e-05 -1.20718e-07 4.74125e-08 1.06771e-09 9.12055e-09 -1.31665e-05)
(1.29071e-05 -1.30649e-07 4.58638e-08 1.25914e-09 2.12688e-08 -1.29083e-05)
(1.26106e-05 -1.3893e-07 4.40716e-08 1.4522e-09 3.37552e-08 -1.2612e-05)
(1.22709e-05 -1.45421e-07 4.20039e-08 1.63295e-09 4.56819e-08 -1.22725e-05)
(1.18844e-05 -1.4999e-07 3.9655e-08 1.78614e-09 5.65927e-08 -1.18862e-05)
(1.14469e-05 -1.52517e-07 3.70383e-08 1.89857e-09 6.69713e-08 -1.14488e-05)
(1.0951e-05 -1.52906e-07 3.41758e-08 1.95892e-09 7.83241e-08 -1.0953e-05)
(1.03849e-05 -1.51064e-07 3.10815e-08 1.95401e-09 9.25854e-08 -1.03869e-05)
(9.73345e-06 -1.4693e-07 2.77725e-08 1.86386e-09 1.11949e-07 -9.73532e-06)
(8.97767e-06 -1.40434e-07 2.42306e-08 1.66285e-09 1.36084e-07 -8.97933e-06)
(8.1121e-06 -1.3168e-07 2.04879e-08 1.3291e-09 1.61361e-07 -8.11343e-06)
(7.14739e-06 -1.21018e-07 1.67668e-08 8.02393e-10 1.90137e-07 -7.14819e-06)
(6.05436e-06 -1.0815e-07 1.30958e-08 6.96054e-12 2.20213e-07 -6.05436e-06)
(4.84289e-06 -9.3373e-08 9.64183e-09 -1.07846e-09 2.44777e-07 -4.84182e-06)
(3.52432e-06 -7.69337e-08 6.61657e-09 -2.41517e-09 2.57825e-07 -3.5219e-06)
(2.13125e-06 -5.93112e-08 4.26375e-09 -3.81406e-09 2.52319e-07 -2.12744e-06)
(6.97212e-07 -4.09821e-08 2.81538e-09 -4.9349e-09 2.23748e-07 -6.92277e-07)
(-7.42025e-07 -2.24763e-08 2.40882e-09 -5.17705e-09 1.66398e-07 7.47202e-07)
(-2.14498e-06 -4.40717e-09 3.24609e-09 -4.14213e-09 8.64431e-08 2.14913e-06)
(-3.47152e-06 1.24172e-08 6.09676e-09 -4.25356e-09 4.27447e-08 3.47577e-06)
(-4.74068e-06 2.62672e-08 1.23445e-08 -1.34126e-08 1.46241e-07 4.75409e-06)
(-6.07452e-06 3.77403e-08 2.08494e-08 -2.79138e-08 2.69342e-07 6.10243e-06)
(-7.33997e-06 4.72947e-08 2.99327e-08 -3.95755e-08 2.87298e-07 7.37955e-06)
(-8.48894e-06 5.56509e-08 4.06323e-08 -5.33397e-08 2.74742e-07 8.54228e-06)
(-9.47979e-06 6.28041e-08 5.29216e-08 -6.9963e-08 2.33753e-07 9.54976e-06)
(-1.02139e-05 6.86144e-08 6.54897e-08 -8.34687e-08 1.22968e-07 1.02974e-05)
(-1.05508e-05 7.26186e-08 7.57655e-08 -7.97631e-08 -1.04216e-07 1.06306e-05)
(-1.03434e-05 7.39168e-08 8.00774e-08 -3.41101e-08 -4.78988e-07 1.03775e-05)
(-9.48574e-06 7.11662e-08 7.47409e-08 8.7314e-08 -9.91326e-07 9.39842e-06)
(-7.96134e-06 6.28437e-08 5.83866e-08 3.13e-07 -1.55748e-06 7.64834e-06)
(-5.87494e-06 4.79831e-08 3.46451e-08 6.31458e-07 -2.00078e-06 5.24349e-06)
(-3.45196e-06 2.77207e-08 1.24747e-08 9.50738e-07 -2.09096e-06 2.50123e-06)
(-9.51218e-07 6.51762e-09 1.06471e-09 1.05637e-06 -1.59663e-06 -1.05151e-07)
(1.00209e-06 -6.6833e-09 3.2748e-09 7.54457e-07 -6.16228e-07 -1.75654e-06)
(1.68833e-06 -8.33883e-09 8.41001e-09 2.23732e-07 2.16111e-07 -1.91206e-06)
(1.31112e-06 -5.03243e-09 6.99413e-09 -1.37453e-07 4.5973e-07 -1.17367e-06)
(6.32948e-07 -2.04934e-09 2.76341e-09 -1.90023e-07 2.92393e-07 -4.42925e-07)
(1.64925e-07 -4.57783e-10 4.57687e-10 -8.24683e-08 8.24623e-08 -8.24563e-08)
(1.48402e-08 -3.28323e-11 1.82125e-11 -1.04115e-08 6.79561e-09 -4.42873e-09)
(2.82362e-10 -4.04899e-13 4.00769e-14 -2.46768e-10 9.37259e-11 -3.55937e-11)
(5.03757e-13 -2.97191e-16 -1.32172e-16 -4.9972e-13 4.68755e-14 -4.03693e-15)
(8.80501e-05 -5.93488e-08 8.28618e-07 5.08126e-11 1.38918e-09 -8.80501e-05)
(8.86179e-05 -1.76277e-07 8.40026e-07 4.0629e-10 1.85536e-08 -8.86183e-05)
(8.87326e-05 -2.8626e-07 8.43483e-07 1.00449e-09 4.04659e-08 -8.87336e-05)
(8.88314e-05 -3.88669e-07 8.47042e-07 1.78876e-09 5.38352e-08 -8.88332e-05)
(8.88268e-05 -4.82976e-07 8.48892e-07 2.65884e-09 6.95662e-08 -8.88295e-05)
(8.86441e-05 -5.68538e-07 8.47437e-07 3.57235e-09 8.96191e-08 -8.86477e-05)
(8.82313e-05 -6.44855e-07 8.41551e-07 4.51622e-09 1.15982e-07 -8.82358e-05)
(8.75626e-05 -7.11592e-07 8.30682e-07 5.48331e-09 1.50222e-07 -8.75681e-05)
(8.66347e-05 -7.68581e-07 8.148e-07 6.45051e-09 1.92825e-07 -8.66411e-05)
(8.54637e-05 -8.15813e-07 7.94333e-07 7.36675e-09 2.43519e-07 -8.54711e-05)
(8.40768e-05 -8.5338e-07 7.69978e-07 8.1594e-09 3.0118e-07 -8.4085e-05)
(8.25077e-05 -8.8149e-07 7.42608e-07 8.75178e-09 3.65156e-07 -8.25165e-05)
(8.07849e-05 -9.00424e-07 7.13039e-07 9.07614e-09 4.3757e-07 -8.0794e-05)
(7.89231e-05 -9.1058e-07 6.8187e-07 9.06846e-09 5.24135e-07 -7.89321e-05)
(7.69174e-05 -9.1245e-07 6.49353e-07 8.64247e-09 6.32685e-07 -7.6926e-05)
(7.47525e-05 -9.06777e-07 6.15555e-07 7.64646e-09 7.7308e-07 -7.47602e-05)
(7.24044e-05 -8.94431e-07 5.80254e-07 5.85307e-09 9.45802e-07 -7.24103e-05)
(6.98732e-05 -8.76692e-07 5.43472e-07 2.9753e-09 1.14041e-06 -6.98762e-05)
(6.71172e-05 -8.53926e-07 5.04869e-07 -1.64548e-09 1.37257e-06 -6.71156e-05)
(6.41989e-05 -8.27539e-07 4.65698e-07 -8.85159e-09 1.64027e-06 -6.419e-05)
(6.11961e-05 -7.99336e-07 4.26955e-07 -1.94229e-08 1.92219e-06 -6.11766e-05)
(5.81614e-05 -7.70357e-07 3.89191e-07 -3.40402e-08 2.19956e-06 -5.81274e-05)
(5.52058e-05 -7.41803e-07 3.53541e-07 -5.28007e-08 2.44908e-06 -5.5153e-05)
(5.23933e-05 -7.14184e-07 3.20523e-07 -7.52549e-08 2.6582e-06 -5.23181e-05)
(4.97164e-05 -6.86827e-07 2.89641e-07 -9.97229e-08 2.80644e-06 -4.96167e-05)
(4.71156e-05 -6.57246e-07 2.60269e-07 -1.24753e-07 2.89887e-06 -4.69909e-05)
(4.45347e-05 -6.20598e-07 2.33987e-07 -1.60386e-07 3.09745e-06 -4.43743e-05)
(4.13782e-05 -5.70372e-07 2.09393e-07 -2.44338e-07 3.75918e-06 -4.11339e-05)
(3.51529e-05 -4.94888e-07 1.61742e-07 -3.6829e-07 4.47848e-06 -3.47847e-05)
(2.90462e-05 -4.37938e-07 1.19958e-07 -5.02161e-07 4.93145e-06 -2.8544e-05)
(2.31557e-05 -3.92213e-07 8.78538e-08 -6.74717e-07 5.33724e-06 -2.2481e-05)
(1.77217e-05 -3.55257e-07 6.63103e-08 -8.91574e-07 5.66074e-06 -1.68302e-05)
(1.30866e-05 -3.24511e-07 5.25727e-08 -1.1183e-06 5.70508e-06 -1.19683e-05)
(9.53929e-06 -2.96553e-07 3.97903e-08 -1.2674e-06 5.23619e-06 -8.27189e-06)
(7.13733e-06 -2.65869e-07 1.77592e-08 -1.17365e-06 4.03247e-06 -5.96368e-06)
(5.57211e-06 -2.23371e-07 -2.23515e-08 -5.81286e-07 1.94687e-06 -4.99083e-06)
(4.21183e-06 -1.57965e-07 -7.81765e-08 8.10387e-07 -9.80188e-07 -5.02222e-06)
(2.46041e-06 -6.80524e-08 -1.26214e-07 3.17313e-06 -4.34546e-06 -5.63354e-06)
(4.54736e-07 2.04041e-08 -1.27192e-07 6.2585e-06 -7.25519e-06 -6.71324e-06)
(8.31593e-07 2.86901e-08 -7.39507e-08 8.38644e-06 -7.43295e-06 -9.21804e-06)
(4.93016e-06 -3.7485e-08 -1.66853e-08 6.763e-06 -3.28471e-06 -1.16932e-05)
(7.95478e-06 -5.81988e-08 1.9516e-08 2.01332e-06 1.60165e-06 -9.9681e-06)
(6.66073e-06 -3.4919e-08 2.88288e-08 -1.43291e-06 2.9636e-06 -5.22782e-06)
(3.0582e-06 -1.3932e-08 1.39303e-08 -1.5292e-06 1.5291e-06 -1.529e-06)
(6.32974e-07 -2.7641e-09 2.04917e-09 -4.4298e-07 2.92394e-07 -1.89994e-07)
(4.62672e-08 -1.71127e-10 6.28501e-11 -3.91491e-08 1.69281e-08 -7.11813e-09)
(9.23261e-10 -2.31093e-12 -1.0637e-13 -8.71728e-10 2.14824e-10 -5.15336e-11)
(1.9017e-12 -2.13962e-15 -1.73834e-15 -1.89535e-12 1.20919e-13 -6.34904e-15)
(-1.15537e-05 1.39141e-08 9.78782e-09 7.3436e-11 -8.79163e-08 1.15537e-05)
(-1.09255e-05 4.03256e-08 8.57201e-09 3.82447e-10 -1.79314e-07 1.09251e-05)
(-9.72471e-06 6.24395e-08 6.60687e-09 5.37083e-10 -2.01361e-07 9.72417e-06)
(-8.35886e-06 7.96377e-08 4.65831e-09 5.19729e-10 -2.0936e-07 8.35834e-06)
(-7.14275e-06 9.30487e-08 3.36636e-09 7.81464e-11 -1.59695e-07 7.14267e-06)
(-6.33309e-06 1.04269e-07 2.9962e-09 -6.91337e-10 -5.7214e-08 6.33378e-06)
(-6.10233e-06 1.14998e-07 3.59959e-09 -1.55516e-09 8.75063e-08 6.10389e-06)
(-6.52897e-06 1.26564e-07 5.16681e-09 -2.29897e-09 2.60903e-07 6.53127e-06)
(-7.61073e-06 1.39721e-07 7.736e-09 -2.8448e-09 4.48076e-07 7.61357e-06)
(-9.27965e-06 1.54585e-07 1.14171e-08 -3.28181e-09 6.35365e-07 9.28293e-06)
(-1.14269e-05 1.70747e-07 1.63468e-08 -3.80595e-09 8.11423e-07 1.14307e-05)
(-1.39191e-05 1.87401e-07 2.26298e-08 -4.6231e-09 9.70912e-07 1.39237e-05)
(-1.66292e-05 2.03622e-07 3.03487e-08 -5.88842e-09 1.11916e-06 1.66351e-05)
(-1.94568e-05 2.18539e-07 3.95921e-08 -7.74056e-09 1.27228e-06 1.94645e-05)
(-2.23456e-05 2.31561e-07 5.04881e-08 -1.04082e-08 1.44998e-06 2.2356e-05)
(-2.5265e-05 2.42275e-07 6.3196e-08 -1.43593e-08 1.67212e-06 2.52794e-05)
(-2.82073e-05 2.50469e-07 7.77585e-08 -2.03278e-08 1.93643e-06 2.82277e-05)
(-3.11319e-05 2.558e-07 9.4038e-08 -2.94483e-08 2.23582e-06 3.11613e-05)
(-3.41115e-05 2.58985e-07 1.12402e-07 -4.32543e-08 2.55964e-06 3.41548e-05)
(-3.68902e-05 2.58449e-07 1.31182e-07 -6.30256e-08 2.85424e-06 3.69532e-05)
(-3.92104e-05 2.53053e-07 1.48464e-07 -9.0113e-08 3.08795e-06 3.93005e-05)
(-4.08951e-05 2.42319e-07 1.62334e-07 -1.2451e-07 3.21463e-06 4.10196e-05)
(-4.1634e-05 2.251e-07 1.69855e-07 -1.6391e-07 3.19158e-06 4.17979e-05)
(-4.12526e-05 2.01072e-07 1.69484e-07 -2.05824e-07 3.04005e-06 4.14584e-05)
(-3.98214e-05 1.70742e-07 1.61555e-07 -2.46722e-07 2.78294e-06 4.00681e-05)
(-3.76726e-05 1.35075e-07 1.48709e-07 -2.86398e-07 2.48651e-06 3.7959e-05)
(-3.5111e-05 9.28093e-08 1.37821e-07 -3.86484e-07 2.77304e-06 3.54975e-05)
(-3.13985e-05 3.61718e-08 1.40556e-07 -8.25335e-07 5.60392e-06 3.22238e-05)
(-2.52501e-05 -2.0684e-08 1.35233e-07 -1.4317e-06 8.61389e-06 2.66818e-05)
(-1.81488e-05 -6.63212e-08 1.18375e-07 -1.90339e-06 9.78638e-06 2.00521e-05)
(-1.01946e-05 -1.20816e-07 1.08236e-07 -2.49428e-06 1.09914e-05 1.26889e-05)
(-1.2988e-06 -1.9062e-07 1.04705e-07 -3.20201e-06 1.21643e-05 4.50082e-06)
(8.27491e-06 -2.80496e-07 1.0306e-07 -3.92556e-06 1.29912e-05 -4.34935e-06)
(1.77593e-05 -3.89987e-07 9.29149e-08 -4.46651e-06 1.31528e-05 -1.32928e-05)
(2.5914e-05 -5.08181e-07 5.74555e-08 -4.51372e-06 1.23735e-05 -2.14002e-05)
(3.12853e-05 -6.09527e-07 -2.15779e-08 -3.63509e-06 1.04291e-05 -2.76502e-05)
(3.26986e-05 -6.56402e-07 -1.50797e-07 -1.29333e-06 7.1852e-06 -3.14053e-05)
(2.96473e-05 -6.09256e-07 -3.08959e-07 3.13506e-06 2.64397e-06 -3.27824e-05)
(2.13628e-05 -3.99156e-07 -4.16695e-07 1.09467e-05 -3.70728e-06 -3.23095e-05)
(1.3917e-05 -1.57091e-07 -3.3655e-07 1.94877e-05 -7.56842e-06 -3.34047e-05)
(1.62869e-05 -1.26626e-07 -1.32667e-07 1.65482e-05 -1.046e-06 -3.2835e-05)
(2.15562e-05 -1.3512e-07 1.95789e-08 1.09467e-06 8.55425e-06 -2.26509e-05)
(1.625e-05 -6.86845e-08 6.86775e-08 -8.12575e-06 8.12498e-06 -8.12421e-06)
(6.66095e-06 -2.88374e-08 3.4921e-08 -5.22845e-06 2.96359e-06 -1.43251e-06)
(1.31121e-06 -6.99643e-09 5.03252e-09 -1.1738e-06 4.5973e-07 -1.37408e-07)
(1.00337e-07 -5.10917e-10 1.42796e-10 -9.56883e-08 2.48158e-08 -4.64836e-09)
(2.19978e-09 -8.00998e-12 -1.30583e-12 -2.17183e-09 3.07158e-10 -2.79516e-11)
(4.87743e-12 -8.26722e-15 -1.0113e-14 -4.87523e-12 1.90393e-13 -2.19732e-15)
(-7.77443e-05 4.02028e-08 4.05808e-07 1.1379e-10 -1.27849e-07 7.77442e-05)
(-7.8463e-05 1.1842e-07 4.13334e-07 8.20929e-10 -3.42072e-07 7.84622e-05)
(-7.81745e-05 1.88458e-07 4.10334e-07 1.57141e-09 -4.75336e-07 7.8173e-05)
(-7.79019e-05 2.49429e-07 4.07609e-07 1.71514e-09 -5.1181e-07 7.79002e-05)
(-7.77494e-05 3.00995e-07 4.06342e-07 8.86592e-10 -4.32629e-07 7.77485e-05)
(-7.78163e-05 3.43416e-07 4.07626e-07 -6.80196e-10 -2.47797e-07 7.78169e-05)
(-7.81873e-05 3.77419e-07 4.12386e-07 -2.4315e-09 2.03841e-08 7.81898e-05)
(-7.89333e-05 4.03908e-07 4.21404e-07 -3.8666e-09 3.42888e-07 7.89371e-05)
(-8.01037e-05 4.23737e-07 4.35277e-07 -4.81305e-09 6.88116e-07 8.01085e-05)
(-8.17225e-05 4.37598e-07 4.5439e-07 -5.49604e-09 1.0273e-06 8.1728e-05)
(-8.37902e-05 4.45966e-07 4.7895e-07 -6.39537e-09 1.33687e-06 8.37966e-05)
(-8.62792e-05 4.49136e-07 5.08931e-07 -8.02188e-09 1.60499e-06 8.62872e-05)
(-8.91581e-05 4.47375e-07 5.44371e-07 -1.07766e-08 1.83913e-06 8.91689e-05)
(-9.24136e-05 4.40997e-07 5.85632e-07 -1.50318e-08 2.06571e-06 9.24286e-05)
(-9.60721e-05 4.30414e-07 6.3367e-07 -2.13823e-08 2.31749e-06 9.60934e-05)
(-0.000100204 4.16118e-07 6.90185e-07 -3.10012e-08 2.62692e-06 0.000100235)
(-0.000104936 3.98202e-07 7.57741e-07 -4.564e-08 2.98601e-06 0.000104982)
(-0.000110301 3.75932e-07 8.37926e-07 -6.78332e-08 3.37348e-06 0.000110369)
(-0.00011627 3.49557e-07 9.31659e-07 -1.01041e-07 3.76778e-06 0.000116371)
(-0.000123022 3.19197e-07 1.04305e-06 -1.47868e-07 4.06615e-06 0.00012317)
(-0.000130468 2.83023e-07 1.17244e-06 -2.10845e-07 4.19773e-06 0.000130679)
(-0.000138617 2.38969e-07 1.32161e-06 -2.89234e-07 4.06169e-06 0.000138906)
(-0.000147273 1.83839e-07 1.48839e-06 -3.77157e-07 3.55828e-06 0.000147651)
(-0.000156348 1.14263e-07 1.6724e-06 -4.7179e-07 2.72452e-06 0.00015682)
(-0.000165989 2.64673e-08 1.87814e-06 -5.75289e-07 1.63398e-06 0.000166564)
(-0.000176674 -8.24589e-08 2.11892e-06 -7.00455e-07 3.787e-07 0.000177375)
(-0.000188824 -2.12762e-07 2.41037e-06 -8.80604e-07 -9.19841e-07 0.000189705)
(-0.000197902 -3.58854e-07 2.64166e-06 -1.18786e-06 -1.89055e-06 0.00019909)
(-0.000185697 -4.47968e-07 2.34461e-06 -1.62494e-06 -1.92559e-06 0.000187322)
(-0.000172627 -5.24157e-07 2.03991e-06 -2.20296e-06 -1.9471e-06 0.00017483)
(-0.000160091 -5.89306e-07 1.7634e-06 -3.01463e-06 -1.86676e-06 0.000163106)
(-0.000148471 -6.46525e-07 1.51947e-06 -4.10123e-06 -1.86622e-06 0.000152572)
(-0.000138744 -7.00872e-07 1.32307e-06 -5.44276e-06 -2.33905e-06 0.000144187)
(-0.0001322 -7.59311e-07 1.19409e-06 -6.9044e-06 -3.89196e-06 0.000139105)
(-0.000129751 -8.25108e-07 1.14921e-06 -8.07832e-06 -7.39531e-06 0.000137829)
(-0.000131133 -8.86189e-07 1.19356e-06 -7.98149e-06 -1.39067e-05 0.000139114)
(-0.000134296 -9.00918e-07 1.30605e-06 -4.80256e-06 -2.40942e-05 0.000139099)
(-0.000135047 -8.04208e-07 1.41403e-06 3.50861e-06 -3.67519e-05 0.000131538)
(-0.0001321 -5.62958e-07 1.43762e-06 2.07148e-05 -5.06247e-05 0.000111385)
(-0.000110142 -2.24866e-07 1.05723e-06 3.9225e-05 -5.28121e-05 7.09165e-05)
(-3.63642e-05 2.40215e-08 1.22416e-07 2.90893e-05 -2.04457e-05 7.27486e-06)
(1.77755e-05 -2.77615e-08 2.77142e-08 -8.89044e-06 8.88777e-06 -8.8851e-06)
(2.15571e-05 -1.96282e-08 1.35134e-07 -2.26541e-05 8.55414e-06 1.097e-06)
(7.95546e-06 -1.95376e-08 5.82126e-08 -9.9693e-06 1.60161e-06 2.01385e-06)
(1.68851e-06 -8.41448e-09 8.33999e-09 -1.9123e-06 2.16108e-07 2.23788e-07)
(1.56118e-07 -8.99693e-10 2.31494e-10 -1.63644e-07 1.46972e-08 7.52585e-09)
(3.82783e-09 -1.7099e-11 -4.92805e-12 -3.90217e-09 1.58135e-10 7.43383e-11)
(8.85642e-12 -1.85535e-14 -3.26406e-14 -8.87385e-12 1.13523e-13 1.7426e-14)
(5.66647e-05 -8.62937e-09 2.15547e-07 1.28621e-10 -5.4842e-08 -5.66649e-05)
(5.63183e-05 -2.44088e-08 2.12678e-07 1.22396e-09 -1.99624e-07 -5.63195e-05)
(5.62058e-05 -3.74219e-08 2.11467e-07 2.77694e-09 -3.11156e-07 -5.62086e-05)
(5.5951e-05 -4.70074e-08 2.09306e-07 3.32455e-09 -3.01542e-07 -5.59543e-05)
(5.54635e-05 -5.28334e-08 2.05686e-07 2.46315e-09 -1.83688e-07 -5.54659e-05)
(5.46529e-05 -5.50043e-08 2.00047e-07 5.14576e-10 3.95533e-08 -5.46534e-05)
(5.3439e-05 -5.38925e-08 1.91879e-07 -1.7236e-09 3.54911e-07 -5.34373e-05)
(5.17482e-05 -5.00019e-08 1.80751e-07 -3.54234e-09 7.42188e-07 -5.17446e-05)
(4.95245e-05 -4.38988e-08 1.66463e-07 -4.74829e-09 1.17578e-06 -4.95197e-05)
(4.67369e-05 -3.61738e-08 1.49145e-07 -5.79569e-09 1.62981e-06 -4.67311e-05)
(4.33789e-05 -2.74107e-08 1.29263e-07 -7.58123e-09 2.07955e-06 -4.33713e-05)
(3.94784e-05 -1.81795e-08 1.07661e-07 -1.11051e-08 2.51085e-06 -3.94673e-05)
(3.50723e-05 -9.01908e-09 8.53533e-08 -1.72646e-08 2.93293e-06 -3.5055e-05)
(3.01784e-05 -4.8926e-10 6.33247e-08 -2.70356e-08 3.38066e-06 -3.01514e-05)
(2.47703e-05 6.74269e-09 4.24272e-08 -4.19944e-08 3.90226e-06 -2.47283e-05)
(1.87586e-05 1.17587e-08 2.34661e-08 -6.51128e-08 4.55381e-06 -1.86935e-05)
(1.19642e-05 1.33063e-08 7.38858e-09 -1.00671e-07 5.3316e-06 -1.18635e-05)
(4.32954e-06 9.87084e-09 -3.99152e-09 -1.54324e-07 6.19862e-06 -4.17521e-06)
(-4.16463e-06 -3.80087e-10 -8.35579e-09 -2.35283e-07 7.17214e-06 4.39991e-06)
(-1.37981e-05 -2.00512e-08 -2.66207e-09 -3.52351e-07 8.14693e-06 1.41505e-05)
(-2.45376e-05 -5.16811e-08 1.68539e-08 -5.14385e-07 9.02034e-06 2.50519e-05)
(-3.65249e-05 -9.90091e-08 5.49091e-08 -7.26091e-07 9.6546e-06 3.7251e-05)
(-4.96151e-05 -1.65817e-07 1.1552e-07 -9.8414e-07 9.90109e-06 5.05993e-05)
(-6.37553e-05 -2.57841e-07 2.02243e-07 -1.29649e-06 9.81943e-06 6.50517e-05)
(-7.9058e-05 -3.83042e-07 3.19378e-07 -1.68896e-06 9.5409e-06 8.0747e-05)
(-9.5745e-05 -5.50115e-07 4.73402e-07 -2.21373e-06 9.20929e-06 9.79588e-05)
(-0.000113967 -7.58446e-07 6.76668e-07 -2.85225e-06 8.42412e-06 0.00011682)
(-0.000133471 -9.91567e-07 9.47012e-07 -3.11418e-06 4.95405e-06 0.000136586)
(-0.000152413 -1.29233e-06 1.22681e-06 -3.53043e-06 1.49029e-06 0.000155943)
(-0.000173734 -1.76685e-06 1.53259e-06 -5.01437e-06 2.13901e-08 0.000178749)
(-0.000198213 -2.42244e-06 1.89841e-06 -7.18689e-06 -2.21908e-06 0.0002054)
(-0.000225191 -3.27632e-06 2.31526e-06 -1.01109e-05 -6.01179e-06 0.000235302)
(-0.000253458 -4.31753e-06 2.76012e-06 -1.378e-05 -1.21213e-05 0.000267238)
(-0.000281065 -5.47489e-06 3.2e-06 -1.78137e-05 -2.15291e-05 0.000298879)
(-0.000305287 -6.59082e-06 3.59843e-06 -2.10171e-05 -3.53524e-05 0.000326304)
(-0.000323298 -7.43495e-06 3.93183e-06 -2.08194e-05 -5.45552e-05 0.000344117)
(-0.000333489 -7.77716e-06 4.21346e-06 -1.30163e-05 -7.92765e-05 0.000346506)
(-0.000335257 -7.44164e-06 4.5058e-06 6.60261e-06 -0.000106993 0.000328655)
(-0.000338289 -6.57089e-06 5.15045e-06 4.90526e-05 -0.000138541 0.000289236)
(-0.000368646 -6.41694e-06 6.70152e-06 0.00012535 -0.000177072 0.000243296)
(-0.00023476 -2.86056e-06 2.86069e-06 0.000117375 -0.00011738 0.000117385)
(-3.63609e-05 -1.22445e-07 -2.40441e-08 7.26602e-06 -2.04454e-05 2.90948e-05)
(1.62895e-05 1.32585e-07 1.26661e-07 -3.28402e-05 -1.04614e-06 1.65507e-05)
(4.93147e-06 1.66572e-08 3.75133e-08 -1.1695e-05 -3.28475e-06 6.76355e-06)
(1.0024e-06 -3.27972e-09 6.6868e-09 -1.75691e-06 -6.1623e-07 7.54514e-07)
(1.5198e-07 -8.04174e-10 2.53819e-10 -1.78047e-07 -2.48727e-08 2.60667e-08)
(4.54858e-09 -2.11908e-11 -9.59377e-12 -4.77701e-09 -3.7747e-10 2.28437e-10)