/*--------------------------------*- C++ -*----------------------------------*\
| =========                 |                                                 |
| \\      /  F ield         | OpenFOAM: The Open Source CFD Toolbox           |
|  \\    /   O peration     | Version:  2412                                  |
|   \\  /    A nd           | Website:  www.openfoam.com                      |
|    \\/     M anipulation  |                                                 |
\*---------------------------------------------------------------------------*/
FoamFile
{
    version     2.0;
    format      ascii;
    arch        "LSB;label=32;scalar=64";
    class       volSymmTensorField;
    location    "2130";
    object      Tij6;
}
// * * * * * * * * * * * * * * * * * * * * * * * * * * * * * * * * * * * * * //

dimensions      [0 0 0 0 0 0 0];

internalField   nonuniform List<symmTensor> 
2304
(
(5.88502e-11 2.17135e-12 -6.28063e-08 5.88456e-11 6.69077e-11 -1.17696e-10)
(5.90692e-11 6.13073e-12 -6.25942e-08 5.90302e-11 1.98925e-10 -1.18099e-10)
(5.89083e-11 9.08273e-12 -6.22243e-08 5.88125e-11 3.28262e-10 -1.17721e-10)
(5.86839e-11 1.07164e-11 -6.17664e-08 5.85256e-11 4.56019e-10 -1.17209e-10)
(5.83843e-11 1.10356e-11 -6.12881e-08 5.81746e-11 5.82272e-10 -1.16559e-10)
(5.79939e-11 1.02839e-11 -6.08425e-08 5.77552e-11 7.0619e-10 -1.15749e-10)
(5.75007e-11 8.844e-12 -6.04629e-08 5.7259e-11 8.2635e-10 -1.1476e-10)
(5.68975e-11 7.14671e-12 -6.01621e-08 5.66739e-11 9.41029e-10 -1.13571e-10)
(5.61794e-11 5.60305e-12 -5.99354e-08 5.59834e-11 1.04841e-09 -1.12163e-10)
(5.53487e-11 4.54359e-12 -5.9765e-08 5.51744e-11 1.14679e-09 -1.10523e-10)
(5.44085e-11 4.17712e-12 -5.96263e-08 5.42355e-11 1.23473e-09 -1.08644e-10)
(5.33685e-11 4.55703e-12 -5.9493e-08 5.31677e-11 1.31121e-09 -1.06536e-10)
(5.2233e-11 5.59052e-12 -5.93435e-08 5.19739e-11 1.37564e-09 -1.04207e-10)
(5.10001e-11 7.11475e-12 -5.91628e-08 5.06567e-11 1.42785e-09 -1.01657e-10)
(4.9648e-11 9.01307e-12 -5.89432e-08 4.91991e-11 1.46773e-09 -9.88471e-11)
(4.81512e-11 1.13152e-11 -5.86795e-08 4.75745e-11 1.49514e-09 -9.57257e-11)
(4.64588e-11 1.42745e-11 -5.83647e-08 4.57204e-11 1.50952e-09 -9.21792e-11)
(4.45656e-11 1.82883e-11 -5.79835e-08 4.36132e-11 1.50991e-09 -8.81788e-11)
(4.24914e-11 2.38112e-11 -5.75143e-08 4.12529e-11 1.49576e-09 -8.37443e-11)
(4.01682e-11 3.14098e-11 -5.69274e-08 3.85503e-11 1.46624e-09 -7.87185e-11)
(3.76455e-11 4.15667e-11 -5.61849e-08 3.55435e-11 1.4207e-09 -7.3189e-11)
(3.49389e-11 5.45826e-11 -5.52478e-08 3.22533e-11 1.35923e-09 -6.71922e-11)
(3.21529e-11 7.04924e-11 -5.40785e-08 2.88088e-11 1.28278e-09 -6.09617e-11)
(2.93834e-11 8.89641e-11 -5.26488e-08 2.53498e-11 1.19361e-09 -5.47333e-11)
(2.67683e-11 1.09325e-10 -5.0944e-08 2.20689e-11 1.095e-09 -4.88372e-11)
(2.44586e-11 1.30383e-10 -4.8967e-08 1.91798e-11 9.91345e-10 -4.36385e-11)
(2.24297e-11 1.50531e-10 -4.67451e-08 1.67138e-11 8.87589e-10 -3.91435e-11)
(2.00388e-11 1.69184e-10 -4.43299e-08 1.40298e-11 7.87352e-10 -3.40686e-11)
(1.577e-11 1.89006e-10 -4.17615e-08 9.56851e-12 6.85217e-10 -2.53385e-11)
(1.11773e-11 2.1188e-10 -3.90114e-08 4.91579e-12 5.7651e-10 -1.60931e-11)
(6.5486e-12 2.37007e-10 -3.60659e-08 4.52739e-13 4.63857e-10 -7.00134e-12)
(1.98891e-12 2.6365e-10 -3.2926e-08 -3.61453e-12 3.49895e-10 1.62562e-12)
(-2.26343e-12 2.90918e-10 -2.9601e-08 -6.94398e-12 2.38068e-10 9.2074e-12)
(-5.78878e-12 3.17053e-10 -2.61137e-08 -9.02467e-12 1.33136e-10 1.48135e-11)
(-8.06582e-12 3.39049e-10 -2.25105e-08 -9.31521e-12 4.12838e-11 1.7381e-11)
(-8.62966e-12 3.52786e-10 -1.88698e-08 -7.49089e-12 -3.06868e-11 1.61205e-11)
(-7.28359e-12 3.53839e-10 -1.53047e-08 -3.72881e-12 -7.70895e-11 1.10124e-11)
(-4.32966e-12 3.3901e-10 -1.19534e-08 1.09121e-12 -9.56768e-11 3.23846e-12)
(-6.9012e-13 3.08099e-10 -8.95538e-09 5.4787e-12 -8.95827e-11 -4.78858e-12)
(2.35316e-12 2.64804e-10 -6.41792e-09 7.92368e-12 -6.72445e-11 -1.02768e-11)
(3.59231e-12 2.15773e-10 -4.38871e-09 7.5906e-12 -4.02984e-11 -1.11829e-11)
(2.95175e-12 1.67649e-10 -2.84824e-09 5.21282e-12 -1.88799e-11 -8.16457e-12)
(1.62556e-12 1.24371e-10 -1.73183e-09 2.61969e-12 -6.71067e-12 -4.24525e-12)
(6.33763e-13 8.72024e-11 -9.62126e-10 9.58096e-13 -1.68836e-12 -1.59186e-12)
(1.67861e-13 5.62913e-11 -4.66569e-10 2.34222e-13 -2.40633e-13 -4.02084e-13)
(2.39207e-14 3.17156e-11 -1.80365e-10 2.69837e-14 -2.13099e-15 -5.09044e-14)
(6.42903e-16 1.38198e-11 -4.47111e-11 -5.06524e-16 1.97981e-15 -1.36379e-16)
(4.52201e-17 3.65237e-12 -3.65237e-12 -2.16894e-17 6.78302e-17 -2.35308e-17)
(-9.48483e-09 1.33752e-09 -1.25524e-05 -9.48749e-09 1.24503e-08 1.89723e-08)
(-9.44511e-09 3.7759e-09 -1.25103e-05 -9.46742e-09 3.69508e-08 1.89125e-08)
(-9.11202e-09 5.59477e-09 -1.24368e-05 -9.16669e-09 6.07647e-08 1.82787e-08)
(-8.71261e-09 6.60388e-09 -1.23459e-05 -8.80251e-09 8.40271e-08 1.75151e-08)
(-8.31487e-09 6.80487e-09 -1.22508e-05 -8.43346e-09 1.06746e-07 1.67483e-08)
(-7.9723e-09 6.34757e-09 -1.21622e-05 -8.10675e-09 1.28802e-07 1.60791e-08)
(-7.7195e-09 5.46697e-09 -1.20866e-05 -7.85519e-09 1.49988e-07 1.55747e-08)
(-7.57187e-09 4.42805e-09 -1.20266e-05 -7.69709e-09 1.70051e-07 1.5269e-08)
(-7.5282e-09 3.48357e-09 -1.19814e-05 -7.63794e-09 1.88716e-07 1.51661e-08)
(-7.57379e-09 2.83691e-09 -1.19473e-05 -7.67149e-09 2.05724e-07 1.52453e-08)
(-7.68675e-09 2.61676e-09 -1.19195e-05 -7.78372e-09 2.20846e-07 1.54705e-08)
(-7.84127e-09 2.85626e-09 -1.18928e-05 -7.95363e-09 2.33916e-07 1.57949e-08)
(-8.01677e-09 3.49846e-09 -1.18627e-05 -8.16118e-09 2.44836e-07 1.6178e-08)
(-8.20252e-09 4.44318e-09 -1.18265e-05 -8.39305e-09 2.53569e-07 1.65956e-08)
(-8.4012e-09 5.61842e-09 -1.17824e-05 -8.64927e-09 2.60108e-07 1.70505e-08)
(-8.62257e-09 7.04223e-09 -1.17296e-05 -8.94011e-09 2.64438e-07 1.75627e-08)
(-8.88319e-09 8.87039e-09 -1.16666e-05 -9.28846e-09 2.66496e-07 1.81717e-08)
(-9.17939e-09 1.13459e-08 -1.15904e-05 -9.70052e-09 2.66172e-07 1.88799e-08)
(-9.4986e-09 1.47483e-08 -1.14957e-05 -1.01744e-08 2.63363e-07 1.9673e-08)
(-9.83444e-09 1.94282e-08 -1.13776e-05 -1.07156e-08 2.57992e-07 2.05501e-08)
(-1.01421e-08 2.56819e-08 -1.12286e-05 -1.12859e-08 2.49996e-07 2.1428e-08)
(-1.03811e-08 3.36955e-08 -1.10412e-05 -1.18427e-08 2.39421e-07 2.22238e-08)
(-1.04846e-08 4.34919e-08 -1.08077e-05 -1.23076e-08 2.26437e-07 2.27923e-08)
(-1.0396e-08 5.48688e-08 -1.05227e-05 -1.26014e-08 2.11391e-07 2.29973e-08)
(-1.00607e-08 6.74196e-08 -1.01833e-05 -1.2641e-08 1.94756e-07 2.27017e-08)
(-9.43831e-09 8.04227e-08 -9.78964e-06 -1.23504e-08 1.77115e-07 2.17887e-08)
(-8.57786e-09 9.28852e-08 -9.34685e-06 -1.17433e-08 1.59121e-07 2.03211e-08)
(-7.80857e-09 1.04425e-07 -8.86492e-06 -1.11424e-08 1.41351e-07 1.89509e-08)
(-7.65182e-09 1.16691e-07 -8.35237e-06 -1.11044e-08 1.2338e-07 1.87562e-08)
(-7.6311e-09 1.3084e-07 -7.80317e-06 -1.11535e-08 1.04815e-07 1.87846e-08)
(-7.61991e-09 1.46367e-07 -7.21494e-06 -1.11215e-08 8.60359e-08 1.87414e-08)
(-7.60977e-09 1.62832e-07 -6.58819e-06 -1.0958e-08 6.74127e-08 1.85678e-08)
(-7.53927e-09 1.79714e-07 -5.92493e-06 -1.05602e-08 4.94097e-08 1.80995e-08)
(-7.28386e-09 1.95963e-07 -5.22968e-06 -9.76426e-09 3.2642e-08 1.70481e-08)
(-6.68953e-09 2.0976e-07 -4.51135e-06 -8.39879e-09 1.78747e-08 1.50883e-08)
(-5.63201e-09 2.18581e-07 -3.78501e-06 -6.37536e-09 5.92675e-09 1.20074e-08)
(-4.09456e-09 2.1966e-07 -3.07252e-06 -3.79547e-09 -2.52017e-09 7.89002e-09)
(-2.23702e-09 2.10911e-07 -2.4009e-06 -1.02074e-09 -7.16405e-09 3.25777e-09)
(-4.06173e-10 1.92038e-07 -1.79803e-06 1.37401e-09 -8.30378e-09 -9.67841e-10)
(9.67809e-10 1.65084e-07 -1.28535e-06 2.80275e-09 -6.83919e-09 -3.77055e-09)
(1.51595e-09 1.34495e-07 -8.76196e-07 2.94939e-09 -4.21023e-09 -4.46534e-09)
(1.27578e-09 1.04632e-07 -5.67473e-07 2.13197e-09 -1.89002e-09 -3.40775e-09)
(7.33163e-10 7.80022e-08 -3.45315e-07 1.12046e-09 -5.65128e-10 -1.85362e-09)
(3.07704e-10 5.53311e-08 -1.93058e-07 4.31474e-10 -6.59052e-11 -7.39178e-10)
(9.41013e-11 3.65197e-08 -9.50612e-08 1.12777e-10 3.35074e-11 -2.06878e-10)
(1.8408e-11 2.05769e-08 -3.64386e-08 1.30623e-11 1.88163e-11 -3.14703e-11)
(1.12257e-12 5.42144e-09 -5.42144e-09 -5.63242e-13 1.68386e-12 -5.59328e-13)
(6.43652e-16 4.47111e-11 -1.38198e-11 -1.35993e-16 1.98291e-15 -5.07658e-16)
(-7.19552e-07 5.4871e-08 -0.000297464 -7.19652e-07 2.71989e-07 1.4392e-06)
(-7.18882e-07 1.54962e-07 -0.000296582 -7.19723e-07 8.04292e-07 1.4386e-06)
(-7.09765e-07 2.29808e-07 -0.000295042 -7.11817e-07 1.31647e-06 1.42158e-06)
(-6.98796e-07 2.71616e-07 -0.000293132 -7.02154e-07 1.81119e-06 1.40095e-06)
(-6.87881e-07 2.80372e-07 -0.000291129 -6.9229e-07 2.28767e-06 1.38017e-06)
(-6.78553e-07 2.62139e-07 -0.000289254 -6.83528e-07 2.744e-06 1.36208e-06)
(-6.71865e-07 2.26499e-07 -0.000287644 -6.7687e-07 3.17704e-06 1.34873e-06)
(-6.68351e-07 1.84319e-07 -0.000286351 -6.72964e-07 3.58282e-06 1.34132e-06)
(-6.68065e-07 1.46002e-07 -0.000285358 -6.72115e-07 3.95696e-06 1.34018e-06)
(-6.70654e-07 1.19941e-07 -0.000284588 -6.74275e-07 4.29517e-06 1.34493e-06)
(-6.75524e-07 1.11466e-07 -0.000283941 -6.79131e-07 4.59362e-06 1.35465e-06)
(-6.81942e-07 1.21983e-07 -0.000283304 -6.86119e-07 4.84936e-06 1.36806e-06)
(-6.89306e-07 1.49195e-07 -0.000282585 -6.9465e-07 5.06063e-06 1.38396e-06)
(-6.9731e-07 1.89023e-07 -0.000281719 -7.04325e-07 5.2268e-06 1.40164e-06)
(-7.06057e-07 2.3853e-07 -0.000280671 -7.15148e-07 5.34789e-06 1.4212e-06)
(-7.1589e-07 2.98474e-07 -0.000279413 -7.27481e-07 5.42412e-06 1.44337e-06)
(-7.27345e-07 3.75252e-07 -0.000277913 -7.42081e-07 5.45525e-06 1.46943e-06)
(-7.40301e-07 4.78776e-07 -0.000276105 -7.59177e-07 5.4407e-06 1.49948e-06)
(-7.54155e-07 6.20837e-07 -0.000273979 -7.78555e-07 5.38132e-06 1.53271e-06)
(-7.68854e-07 8.15902e-07 -0.000271341 -8.00596e-07 5.27467e-06 1.56945e-06)
(-7.8285e-07 1.07632e-06 -0.000268025 -8.24017e-07 5.12091e-06 1.60687e-06)
(-7.94591e-07 1.41017e-06 -0.000263866 -8.47264e-07 4.92151e-06 1.64186e-06)
(-8.0163e-07 1.81898e-06 -0.000258698 -8.67558e-07 4.67951e-06 1.66919e-06)
(-8.01749e-07 2.29519e-06 -0.000252394 -8.81983e-07 4.40026e-06 1.68373e-06)
(-7.92863e-07 2.82338e-06 -0.000244881 -8.87501e-07 4.08989e-06 1.68036e-06)
(-7.73187e-07 3.37594e-06 -0.000236145 -8.81034e-07 3.75458e-06 1.65422e-06)
(-7.431e-07 3.91342e-06 -0.000226259 -8.61488e-07 3.40209e-06 1.60459e-06)
(-7.10724e-07 4.41936e-06 -0.00021541 -8.3663e-07 3.04535e-06 1.54735e-06)
(-6.90283e-07 4.9613e-06 -0.000203784 -8.22438e-07 2.68733e-06 1.51272e-06)
(-6.68703e-07 5.58726e-06 -0.000191228 -8.06635e-07 2.32916e-06 1.47534e-06)
(-6.4234e-07 6.27756e-06 -0.00017769 -7.84651e-07 1.9776e-06 1.42699e-06)
(-6.1084e-07 7.01672e-06 -0.000163175 -7.55271e-07 1.63693e-06 1.36611e-06)
(-5.72088e-07 7.78615e-06 -0.000147714 -7.15486e-07 1.31126e-06 1.28757e-06)
(-5.22255e-07 8.54493e-06 -0.000131389 -6.60261e-07 1.00561e-06 1.18252e-06)
(-4.57125e-07 9.21867e-06 -0.000114372 -5.83877e-07 7.2592e-07 1.041e-06)
(-3.74213e-07 9.69942e-06 -9.69724e-05 -4.82388e-07 4.7921e-07 8.566e-07)
(-2.75316e-07 9.8613e-06 -7.96606e-05 -3.56968e-07 2.73622e-07 6.32284e-07)
(-1.68607e-07 9.59647e-06 -6.3052e-05 -2.17362e-07 1.17963e-07 3.85969e-07)
(-6.83083e-08 8.86716e-06 -4.78449e-05 -8.29673e-08 1.91986e-08 1.51276e-07)
(9.84484e-09 7.76069e-06 -3.47437e-05 2.04914e-08 -1.93435e-08 -3.03363e-08)
(5.06505e-08 6.43066e-06 -2.4028e-05 6.90188e-08 -1.15243e-08 -1.19669e-07)
(5.20332e-08 5.08108e-06 -1.57644e-05 6.38028e-08 8.79484e-09 -1.15836e-07)
(3.34422e-08 3.84471e-06 -9.70849e-06 3.57657e-08 1.73917e-08 -6.92079e-08)
(1.54209e-08 2.73724e-06 -5.42924e-06 1.25893e-08 1.37564e-08 -2.80102e-08)
(4.94634e-09 1.66038e-06 -2.44802e-06 1.75794e-09 6.30148e-09 -6.70427e-09)
(7.48512e-10 5.61959e-07 -5.61959e-07 -3.7483e-10 1.12277e-09 -3.73682e-10)
(1.84121e-11 3.64386e-08 -2.05768e-08 -3.15082e-11 1.8802e-11 1.30961e-11)
(2.39358e-14 1.80365e-10 -3.17156e-11 -5.09468e-14 -2.16068e-15 2.7011e-14)
(4.70787e-06 5.09868e-07 -0.0018723 4.70702e-06 1.5582e-06 -9.41489e-06)
(4.71875e-06 1.44102e-06 -0.00186832 4.71167e-06 4.59305e-06 -9.43043e-06)
(4.68419e-06 2.13989e-06 -0.00186138 4.66701e-06 7.47769e-06 -9.3512e-06)
(4.64022e-06 2.53391e-06 -0.00185276 4.6123e-06 1.02183e-05 -9.25252e-06)
(4.58865e-06 2.62185e-06 -0.00184373 4.55226e-06 1.28068e-05 -9.14091e-06)
(4.53008e-06 2.45865e-06 -0.00183529 4.48928e-06 1.52383e-05 -9.01936e-06)
(4.46397e-06 2.13263e-06 -0.00182806 4.42314e-06 1.75056e-05 -8.88711e-06)
(4.38884e-06 1.74513e-06 -0.00182229 4.35131e-06 1.95993e-05 -8.74015e-06)
(4.30279e-06 1.3938e-06 -0.00181788 4.26982e-06 2.15079e-05 -8.57261e-06)
(4.20402e-06 1.15788e-06 -0.0018145 4.17439e-06 2.32187e-05 -8.37842e-06)
(4.09085e-06 1.08812e-06 -0.00181166 4.06116e-06 2.4719e-05 -8.152e-06)
(3.96209e-06 1.19876e-06 -0.00180885 3.92763e-06 2.59977e-05 -7.88972e-06)
(3.8163e-06 1.46968e-06 -0.0018056 3.77227e-06 2.70474e-05 -7.58857e-06)
(3.65105e-06 1.86432e-06 -0.00180159 3.59339e-06 2.78651e-05 -7.24443e-06)
(3.46237e-06 2.35676e-06 -0.00179662 3.38774e-06 2.84526e-05 -6.85011e-06)
(3.24522e-06 2.95574e-06 -0.00179054 3.1501e-06 2.8816e-05 -6.39532e-06)
(2.99328e-06 3.72288e-06 -0.00178312 2.87237e-06 2.8964e-05 -5.86565e-06)
(2.70474e-06 4.75409e-06 -0.00177407 2.54986e-06 2.89087e-05 -5.2546e-06)
(2.38314e-06 6.16084e-06 -0.00176353 2.18296e-06 2.86625e-05 -4.56609e-06)
(2.01875e-06 8.08052e-06 -0.00175034 1.75833e-06 2.82188e-05 -3.77707e-06)
(1.61487e-06 1.0637e-05 -0.00173371 1.27646e-06 2.75923e-05 -2.89133e-06)
(1.17528e-06 1.39168e-05 -0.00171279 7.40053e-07 2.67951e-05 -1.91533e-06)
(7.10845e-07 1.79487e-05 -0.00168674 1.61129e-07 2.58387e-05 -8.71975e-07)
(2.32751e-07 2.26801e-05 -0.00165485 -4.45289e-07 2.4737e-05 2.12538e-07)
(-2.47078e-07 2.7994e-05 -0.00161664 -1.06115e-06 2.3493e-05 1.30823e-06)
(-7.14816e-07 3.36761e-05 -0.00157184 -1.66274e-06 2.20893e-05 2.37756e-06)
(-1.15708e-06 3.94089e-05 -0.00152042 -2.22304e-06 2.05039e-05 3.38011e-06)
(-1.5802e-06 4.50546e-05 -0.00146279 -2.74336e-06 1.87916e-05 4.32356e-06)
(-2.02485e-06 5.12273e-05 -0.00139956 -3.2861e-06 1.70952e-05 5.31095e-06)
(-2.4467e-06 5.83959e-05 -0.00132981 -3.82795e-06 1.55361e-05 6.27465e-06)
(-2.82972e-06 6.64388e-05 -0.0012531 -4.3547e-06 1.41162e-05 7.18441e-06)
(-3.16002e-06 7.52835e-05 -0.00116916 -4.85735e-06 1.28204e-05 8.01737e-06)
(-3.40474e-06 8.48245e-05 -0.00107782 -5.30786e-06 1.16145e-05 8.7126e-06)
(-3.51707e-06 9.47333e-05 -0.000979098 -5.65602e-06 1.04398e-05 9.1731e-06)
(-3.44795e-06 0.000104323 -0.000873466 -5.82907e-06 9.20857e-06 9.27702e-06)
(-3.16209e-06 0.000112491 -0.000762087 -5.73405e-06 7.82219e-06 8.89614e-06)
(-2.65397e-06 0.000117779 -0.000647045 -5.26887e-06 6.22011e-06 7.92285e-06)
(-1.9585e-06 0.000118637 -0.000531493 -4.35753e-06 4.4502e-06 6.31602e-06)
(-1.15079e-06 0.000113949 -0.000419715 -3.01827e-06 2.71707e-06 4.16907e-06)
(-3.17141e-07 0.000103781 -0.000317101 -1.47621e-06 1.42546e-06 1.79335e-06)
(3.34013e-07 8.9213e-05 -0.000227293 -2.51098e-07 8.27294e-07 -8.29145e-08)
(5.62776e-07 7.24124e-05 -0.000153011 2.43666e-07 6.61179e-07 -8.06442e-07)
(4.37041e-07 5.46226e-05 -9.38106e-05 1.88508e-07 5.22778e-07 -6.25549e-07)
(2.10983e-07 3.51694e-05 -4.73722e-05 2.13878e-08 2.92263e-07 -2.3237e-07)
(5.49748e-08 1.48558e-05 -1.48558e-05 -2.75103e-08 8.24623e-08 -2.74646e-08)
(4.94673e-09 2.44801e-06 -1.66037e-06 -6.70959e-09 6.30009e-09 1.76285e-09)
(9.41207e-11 9.5061e-08 -3.65196e-08 -2.06992e-10 3.3435e-11 1.12871e-10)
(1.67919e-13 4.66568e-10 -5.62912e-11 -4.02259e-13 -2.40868e-13 2.3434e-13)
(2.935e-05 1.76301e-06 -0.00467791 2.93475e-05 3.40732e-06 -5.86975e-05)
(2.95394e-05 4.98368e-06 -0.00467243 2.95181e-05 1.00478e-05 -5.90575e-05)
(2.95778e-05 7.40419e-06 -0.00466291 2.95264e-05 1.62835e-05 -5.91042e-05)
(2.9611e-05 8.77411e-06 -0.00465121 2.95281e-05 2.20578e-05 -5.91392e-05)
(2.96098e-05 9.08654e-06 -0.00463912 2.9503e-05 2.73663e-05 -5.91128e-05)
(2.95492e-05 8.52825e-06 -0.00462807 2.94308e-05 3.22131e-05 -5.89801e-05)
(2.9412e-05 7.40457e-06 -0.00461895 2.92948e-05 3.66124e-05 -5.87068e-05)
(2.91894e-05 6.06947e-06 -0.00461211 2.90828e-05 4.05805e-05 -5.82722e-05)
(2.88805e-05 4.86603e-06 -0.00460739 2.87874e-05 4.41294e-05 -5.76678e-05)
(2.84905e-05 4.07406e-06 -0.00460425 2.84069e-05 4.72639e-05 -5.68974e-05)
(2.80284e-05 3.87446e-06 -0.00460198 2.79443e-05 4.99806e-05 -5.59728e-05)
(2.75057e-05 4.32255e-06 -0.00459976 2.74075e-05 5.22709e-05 -5.49131e-05)
(2.69316e-05 5.35719e-06 -0.00459688 2.68055e-05 5.4126e-05 -5.37371e-05)
(2.63111e-05 6.86243e-06 -0.00459278 2.61453e-05 5.55446e-05 -5.24564e-05)
(2.56427e-05 8.76091e-06 -0.00458703 2.5427e-05 5.65382e-05 -5.10696e-05)
(2.49211e-05 1.10969e-05 -0.00457926 2.46446e-05 5.71353e-05 -4.95657e-05)
(2.41384e-05 1.40996e-05 -0.00456902 2.37849e-05 5.73789e-05 -4.79233e-05)
(2.32946e-05 1.81241e-05 -0.0045558 2.28396e-05 5.73276e-05 -4.61342e-05)
(2.23759e-05 2.3557e-05 -0.00453994 2.17859e-05 5.70271e-05 -4.41618e-05)
(2.1403e-05 3.0882e-05 -0.0045194 2.06339e-05 5.64952e-05 -4.20369e-05)
(2.04019e-05 4.05698e-05 -0.00449282 1.93992e-05 5.57956e-05 -3.98012e-05)
(1.93903e-05 5.29686e-05 -0.00445887 1.80923e-05 5.49706e-05 -3.74826e-05)
(1.8405e-05 6.82413e-05 -0.00441609 1.67475e-05 5.40465e-05 -3.51524e-05)
(1.74674e-05 8.62868e-05 -0.00436321 1.53894e-05 5.3038e-05 -3.28567e-05)
(1.6575e-05 0.000106821 -0.00429927 1.40246e-05 5.19104e-05 -3.05995e-05)
(1.57079e-05 0.000129333 -0.00422348 1.2655e-05 5.05236e-05 -2.83629e-05)
(1.48474e-05 0.000153097 -0.00413499 1.13078e-05 4.85613e-05 -2.61552e-05)
(1.37949e-05 0.000177924 -0.00403263 9.83033e-06 4.57553e-05 -2.36253e-05)
(1.17195e-05 0.000205716 -0.00391489 7.27645e-06 4.30847e-05 -1.89959e-05)
(9.68366e-06 0.000238154 -0.00378108 4.52082e-06 4.17378e-05 -1.42045e-05)
(7.72006e-06 0.00027534 -0.00362993 1.54436e-06 4.13541e-05 -9.26442e-06)
(5.90871e-06 0.000317538 -0.00346 -1.67734e-06 4.17969e-05 -4.23137e-06)
(4.36371e-06 0.000364904 -0.00326987 -5.15958e-06 4.28692e-05 7.95864e-07)
(3.1814e-06 0.00041688 -0.00305839 -8.90962e-06 4.41799e-05 5.72822e-06)
(2.38093e-06 0.000471666 -0.00282494 -1.2887e-05 4.50443e-05 1.0506e-05)
(1.85934e-06 0.000525771 -0.0025695 -1.68968e-05 4.44835e-05 1.50374e-05)
(1.40588e-06 0.000573708 -0.00229275 -2.04132e-05 4.1396e-05 1.90073e-05)
(8.21641e-07 0.000608055 -0.00199625 -2.24116e-05 3.49738e-05 2.159e-05)
(1.52145e-07 0.000620136 -0.00168307 -2.13443e-05 2.52944e-05 2.11922e-05)
(2.76925e-07 0.00060154 -0.001359 -1.59761e-05 1.49468e-05 1.56992e-05)
(1.64311e-06 0.000546004 -0.00103068 -8.05525e-06 7.89181e-06 6.41214e-06)
(2.65154e-06 0.000453507 -0.000710968 -2.31845e-06 4.84823e-06 -3.33083e-07)
(2.22024e-06 0.000323504 -0.000412486 -5.61486e-07 3.29458e-06 -1.65875e-06)
(1.0194e-06 0.000167836 -0.000167836 -5.10013e-07 1.5291e-06 -5.09386e-07)
(2.10991e-07 4.73722e-05 -3.51693e-05 -2.32514e-07 2.92235e-07 2.15231e-08)
(1.54224e-08 5.42924e-06 -2.73723e-06 -2.80221e-08 1.3751e-08 1.25997e-08)
(3.07754e-10 1.93057e-07 -5.53309e-08 -7.39425e-10 -6.612e-11 4.31671e-10)
(6.33899e-13 9.62125e-10 -8.72022e-11 -1.59229e-12 -1.68923e-12 9.58394e-13)
(-3.85125e-06 3.42508e-06 -0.00679146 -3.85524e-06 3.95739e-06 7.70649e-06)
(-3.64185e-06 9.67444e-06 -0.00678796 -3.67515e-06 1.16729e-05 7.317e-06)
(-3.24166e-06 1.43589e-05 -0.00678213 -3.32142e-06 1.88258e-05 6.56308e-06)
(-2.78645e-06 1.69972e-05 -0.00677533 -2.91329e-06 2.52693e-05 5.69974e-06)
(-2.38115e-06 1.75775e-05 -0.00676886 -2.54227e-06 3.10122e-05 4.92342e-06)
(-2.11134e-06 1.64662e-05 -0.00676375 -2.287e-06 3.60684e-05 4.39834e-06)
(-2.03449e-06 1.42642e-05 -0.00676064 -2.20534e-06 4.04794e-05 4.23983e-06)
(-2.17678e-06 1.16699e-05 -0.0067597 -2.32974e-06 4.42947e-05 4.50652e-06)
(-2.53743e-06 9.3614e-06 -0.00676076 -2.66916e-06 4.75595e-05 5.20658e-06)
(-3.09379e-06 7.8928e-06 -0.00676334 -3.21123e-06 5.03066e-05 6.30502e-06)
(-3.80961e-06 7.62508e-06 -0.00676684 -3.92808e-06 5.25541e-05 7.73769e-06)
(-4.64037e-06 8.68037e-06 -0.00677058 -4.77968e-06 5.43107e-05 9.42005e-06)
(-5.54377e-06 1.0964e-05 -0.0067739 -5.72377e-06 5.5584e-05 1.12675e-05)
(-6.48631e-06 1.4284e-05 -0.00677618 -6.72416e-06 5.639e-05 1.32105e-05)
(-7.44927e-06 1.85285e-05 -0.00677686 -7.75983e-06 5.67597e-05 1.52091e-05)
(-8.42238e-06 2.38233e-05 -0.00677535 -8.82175e-06 5.67434e-05 1.72441e-05)
(-9.40313e-06 3.06494e-05 -0.00677102 -9.91427e-06 5.63936e-05 1.93174e-05)
(-1.03779e-05 3.97274e-05 -0.00676333 -1.10341e-05 5.57629e-05 2.14121e-05)
(-1.13711e-05 5.18116e-05 -0.00675265 -1.22161e-05 5.49336e-05 2.35872e-05)
(-1.22973e-05 6.78481e-05 -0.00673685 -1.33878e-05 5.39487e-05 2.5685e-05)
(-1.30706e-05 8.87929e-05 -0.00671471 -1.44755e-05 5.2855e-05 2.75461e-05)
(-1.36321e-05 0.000115379 -0.00668509 -1.54287e-05 5.16813e-05 2.90608e-05)
(-1.38783e-05 0.000148003 -0.00664673 -1.61461e-05 5.04347e-05 3.00244e-05)
(-1.37511e-05 0.000186589 -0.00659851 -1.65643e-05 4.91212e-05 3.03154e-05)
(-1.32739e-05 0.000230779 -0.00653964 -1.66946e-05 4.7705e-05 2.99686e-05)
(-1.25576e-05 0.000280009 -0.0064694 -1.66212e-05 4.60412e-05 2.91788e-05)
(-1.17036e-05 0.000333791 -0.00638657 -1.63703e-05 4.36068e-05 2.80739e-05)
(-1.04661e-05 0.000392925 -0.00628887 -1.55534e-05 3.95749e-05 2.60195e-05)
(-8.41659e-06 0.000460229 -0.00617327 -1.40549e-05 3.66653e-05 2.24715e-05)
(-6.04943e-06 0.000538453 -0.00603883 -1.28144e-05 3.68263e-05 1.88638e-05)
(-3.39798e-06 0.000629274 -0.00588425 -1.19906e-05 3.91716e-05 1.53886e-05)
(-4.32559e-07 0.000734332 -0.00570769 -1.18206e-05 4.34433e-05 1.22532e-05)
(2.75895e-06 0.000855167 -0.00550774 -1.27398e-05 4.93512e-05 9.98086e-06)
(5.92091e-06 0.000992451 -0.00528357 -1.5345e-05 5.62796e-05 9.42407e-06)
(8.63995e-06 0.00114521 -0.00503451 -2.02462e-05 6.31571e-05 1.16062e-05)
(1.04316e-05 0.00130991 -0.00475884 -2.77858e-05 6.84686e-05 1.73541e-05)
(1.09044e-05 0.00147907 -0.00445195 -3.76149e-05 7.03946e-05 2.67106e-05)
(9.88915e-06 0.00163929 -0.00410394 -4.81216e-05 6.69524e-05 3.82324e-05)
(7.12855e-06 0.00176781 -0.003697 -5.49652e-05 5.51921e-05 4.78367e-05)
(4.64468e-06 0.00182413 -0.00320006 -5.03689e-05 3.65433e-05 4.57242e-05)
(5.43081e-06 0.00174273 -0.0025676 -3.14548e-05 2.01834e-05 2.6024e-05)
(7.1855e-06 0.00145927 -0.00179142 -1.11151e-05 1.25598e-05 3.92961e-06)
(5.41666e-06 0.000961189 -0.000961188 -2.7102e-06 8.12498e-06 -2.70645e-06)
(2.22032e-06 0.000412485 -0.000323503 -1.66021e-06 3.29435e-06 -5.60107e-07)
(4.37071e-07 9.38105e-05 -5.46224e-05 -6.25824e-07 5.22681e-07 1.88753e-07)
(3.34456e-08 9.70848e-06 -3.8447e-06 -6.92289e-08 1.73785e-08 3.57833e-08)
(7.33261e-10 3.45315e-07 -7.8002e-08 -1.85407e-09 -5.65631e-10 1.12081e-09)
(1.62581e-12 1.73183e-09 -1.24371e-10 -4.24609e-12 -6.71298e-12 2.62028e-12)
(-2.59148e-05 4.87652e-06 -0.007447 -2.59189e-05 3.10003e-06 5.18337e-05)
(-2.61544e-05 1.37462e-05 -0.00744698 -2.61881e-05 9.04814e-06 5.23424e-05)
(-2.60583e-05 2.03536e-05 -0.00744695 -2.61377e-05 1.44139e-05 5.2196e-05)
(-2.59676e-05 2.40319e-05 -0.00744693 -2.60916e-05 1.90977e-05 5.20592e-05)
(-2.59168e-05 2.47667e-05 -0.00744692 -2.60711e-05 2.30617e-05 5.19879e-05)
(-2.59392e-05 2.30962e-05 -0.00744691 -2.61032e-05 2.63143e-05 5.20425e-05)
(-2.6063e-05 1.98977e-05 -0.00744691 -2.6218e-05 2.8897e-05 5.2281e-05)
(-2.63117e-05 1.61899e-05 -0.0074469 -2.64463e-05 3.08635e-05 5.27581e-05)
(-2.67019e-05 1.29582e-05 -0.00744689 -2.68145e-05 3.22654e-05 5.35164e-05)
(-2.72415e-05 1.10045e-05 -0.00744687 -2.73397e-05 3.3146e-05 5.45812e-05)
(-2.79308e-05 1.08533e-05 -0.00744685 -2.80287e-05 3.3538e-05 5.59595e-05)
(-2.87604e-05 1.2699e-05 -0.00744682 -2.88748e-05 3.34691e-05 5.76353e-05)
(-2.972e-05 1.64481e-05 -0.00744677 -2.98661e-05 3.29681e-05 5.95861e-05)
(-3.08051e-05 2.18882e-05 -0.00744671 -3.09945e-05 3.20692e-05 6.17996e-05)
(-3.20246e-05 2.89307e-05 -0.00744663 -3.22654e-05 3.08109e-05 6.429e-05)
(-3.34019e-05 3.78192e-05 -0.00744652 -3.37015e-05 2.92382e-05 6.71033e-05)
(-3.49791e-05 4.92779e-05 -0.00744637 -3.53459e-05 2.73648e-05 7.0325e-05)
(-3.67674e-05 6.43393e-05 -0.00744614 -3.72107e-05 2.51721e-05 7.39781e-05)
(-3.87569e-05 8.41105e-05 -0.0074458 -3.92853e-05 2.27322e-05 7.80422e-05)
(-4.10075e-05 0.000109992 -0.00744528 -4.16269e-05 2.00495e-05 8.26344e-05)
(-4.34895e-05 0.000143403 -0.0074445 -4.41952e-05 1.70535e-05 8.76847e-05)
(-4.62057e-05 0.000185539 -0.00744332 -4.69728e-05 1.36507e-05 9.31785e-05)
(-4.90912e-05 0.000237223 -0.00744157 -4.98607e-05 9.71153e-06 9.89519e-05)
(-5.2116e-05 0.00029873 -0.00743903 -5.2781e-05 5.1279e-06 0.000104897)
(-5.53297e-05 0.000370102 -0.00743545 -5.57237e-05 -1.83125e-07 0.000111053)
(-5.88914e-05 0.000451395 -0.00743051 -5.87917e-05 -6.18472e-06 0.000117683)
(-6.29416e-05 0.000543124 -0.0074238 -6.20984e-05 -1.26405e-05 0.00012504)
(-6.59675e-05 0.000646445 -0.00740277 -6.40778e-05 -1.93805e-05 0.000130045)
(-6.18993e-05 0.000758913 -0.00729847 -5.87686e-05 -2.45483e-05 0.000120668)
(-5.75428e-05 0.000889816 -0.00717971 -5.27469e-05 -2.97518e-05 0.00011029)
(-5.33644e-05 0.00104198 -0.00704687 -4.64389e-05 -3.47462e-05 9.98032e-05)
(-4.94911e-05 0.00121882 -0.00690073 -3.98445e-05 -3.95731e-05 8.93357e-05)
(-4.62489e-05 0.00142389 -0.00674315 -3.32012e-05 -4.41716e-05 7.945e-05)
(-4.40678e-05 0.00166047 -0.00657655 -2.70246e-05 -4.82948e-05 7.10924e-05)
(-4.32512e-05 0.00193079 -0.0064021 -2.2159e-05 -5.13601e-05 6.54102e-05)
(-4.37116e-05 0.00223478 -0.00621682 -1.98731e-05 -5.24487e-05 6.35847e-05)
(-4.47657e-05 0.0025672 -0.00600929 -2.18932e-05 -5.0575e-05 6.66589e-05)
(-4.50156e-05 0.00291196 -0.00575395 -3.01835e-05 -4.50745e-05 7.5199e-05)
(-4.40333e-05 0.00323234 -0.0054047 -4.27857e-05 -4.01706e-05 8.6819e-05)
(-3.67136e-05 0.00345145 -0.00488692 -4.50044e-05 -3.59529e-05 8.1718e-05)
(-1.21205e-05 0.00339775 -0.00406606 -2.80951e-05 -1.23104e-05 4.02156e-05)
(5.92518e-06 0.00284782 -0.00284782 -2.96759e-06 8.88777e-06 -2.95759e-06)
(7.18582e-06 0.00179142 -0.00145926 3.92334e-06 1.25591e-05 -1.11092e-05)
(2.65176e-06 0.000710966 -0.000453505 -3.3541e-07 4.84758e-06 -2.31635e-06)
(5.62836e-07 0.00015301 -7.24122e-05 -8.06867e-07 6.60973e-07 2.44031e-07)
(5.20392e-08 1.57644e-05 -5.08106e-06 -1.15869e-07 8.76879e-09 6.38297e-08)
(1.27594e-09 5.67472e-07 -1.04632e-07 -3.40848e-09 -1.89103e-09 2.13253e-09)
(2.95216e-12 2.84823e-09 -1.67648e-10 -8.16598e-12 -1.8885e-11 5.21382e-12)
(1.88883e-05 6.10028e-06 -0.0074472 1.88852e-05 1.86644e-06 -3.77735e-05)
(1.87728e-05 1.71477e-05 -0.00744719 1.87486e-05 5.31748e-06 -3.75213e-05)
(1.87353e-05 2.53002e-05 -0.00744716 1.86801e-05 8.21223e-06 -3.74154e-05)
(1.86503e-05 2.97593e-05 -0.00744714 1.85673e-05 1.04996e-05 -3.72176e-05)
(1.84878e-05 3.05294e-05 -0.00744715 1.83896e-05 1.20965e-05 -3.68774e-05)
(1.82176e-05 2.83208e-05 -0.00744716 1.81195e-05 1.3009e-05 -3.63371e-05)
(1.7813e-05 2.42666e-05 -0.0074472 1.7727e-05 1.32831e-05 -3.554e-05)
(1.72494e-05 1.96691e-05 -0.00744724 1.71812e-05 1.29801e-05 -3.44306e-05)
(1.65082e-05 1.57794e-05 -0.0074473 1.64568e-05 1.21613e-05 -3.2965e-05)
(1.5579e-05 1.36148e-05 -0.00744735 1.55393e-05 1.0881e-05 -3.11183e-05)
(1.44596e-05 1.385e-05 -0.00744741 1.44256e-05 9.18176e-06 -2.88852e-05)
(1.31595e-05 1.67678e-05 -0.00744747 1.31277e-05 7.09537e-06 -2.62872e-05)
(1.16908e-05 2.23194e-05 -0.00744752 1.16632e-05 4.64675e-06 -2.3354e-05)
(1.00595e-05 3.03309e-05 -0.00744755 1.00449e-05 1.85599e-06 -2.01043e-05)
(8.25676e-06 4.07841e-05 -0.00744755 8.27134e-06 -1.26296e-06 -1.65281e-05)
(6.25288e-06 5.40552e-05 -0.00744752 6.32199e-06 -4.69218e-06 -1.25749e-05)
(3.98807e-06 7.10731e-05 -0.00744741 4.15055e-06 -8.45444e-06 -8.13862e-06)
(1.4432e-06 9.31029e-05 -0.00744719 1.75893e-06 -1.2599e-05 -3.20213e-06)
(-1.38818e-06 0.000121537 -0.00744677 -8.31556e-07 -1.70834e-05 2.21973e-06)
(-4.59932e-06 0.000158086 -0.00744605 -3.67272e-06 -2.19611e-05 8.27205e-06)
(-8.17912e-06 0.000204427 -0.00744485 -6.69537e-06 -2.7338e-05 1.48745e-05)
(-1.21749e-05 0.000261987 -0.00744292 -9.8688e-06 -3.33648e-05 2.20437e-05)
(-1.65383e-05 0.000331765 -0.00743994 -1.30421e-05 -4.02365e-05 2.95804e-05)
(-2.12517e-05 0.000414136 -0.00743554 -1.6078e-05 -4.80849e-05 3.73297e-05)
(-2.63527e-05 0.00050927 -0.00742928 -1.88827e-05 -5.69509e-05 4.52354e-05)
(-3.19152e-05 0.000617546 -0.00742061 -2.1429e-05 -6.65635e-05 5.33442e-05)
(-3.79895e-05 0.000740007 -0.00740882 -2.38367e-05 -7.58492e-05 6.18262e-05)
(-4.44913e-05 0.000878958 -0.00739289 -2.62146e-05 -8.37278e-05 7.07059e-05)
(-5.08057e-05 0.00103966 -0.0073713 -2.68709e-05 -9.39303e-05 7.76766e-05)
(-5.79144e-05 0.00122715 -0.00734167 -2.52751e-05 -0.000109455 8.31895e-05)
(-6.60763e-05 0.00144475 -0.00730102 -2.13157e-05 -0.00012832 8.7392e-05)
(-7.50727e-05 0.0016958 -0.00724565 -1.42172e-05 -0.000149296 8.92899e-05)
(-8.45e-05 0.00198258 -0.00717108 -3.38062e-06 -0.00017061 8.78806e-05)
(-9.37079e-05 0.00230573 -0.00707217 1.1094e-05 -0.000189568 8.26139e-05)
(-0.000101786 0.00266395 -0.00694335 2.78366e-05 -0.000202762 7.39499e-05)
(-0.000107791 0.00305392 -0.0067789 4.38425e-05 -0.000207115 6.39489e-05)
(-0.000111185 0.00347055 -0.00657327 5.46996e-05 -0.000201483 5.64857e-05)
(-0.000111766 0.00390697 -0.0063214 5.44939e-05 -0.000186832 5.72723e-05)
(-0.000112767 0.00435363 -0.00601954 3.85429e-05 -0.000172265 7.42245e-05)
(-0.000122883 0.00480339 -0.00566398 3.22359e-05 -0.000182002 9.06466e-05)
(-7.82533e-05 0.00481644 -0.00481644 3.91189e-05 -0.00011738 3.91344e-05)
(-1.21194e-05 0.00406605 -0.00339775 4.02026e-05 -1.23109e-05 -2.80832e-05)
(5.43169e-06 0.00256759 -0.00174273 2.60158e-05 2.01818e-05 -3.14475e-05)
(1.64355e-06 0.00103068 -0.000546002 6.40899e-06 7.89062e-06 -8.05254e-06)
(3.34117e-07 0.000227292 -8.92127e-05 -8.35128e-08 8.26935e-07 -2.50604e-07)
(5.06601e-08 2.40279e-05 -6.43064e-06 -1.19717e-07 -1.15703e-08 6.90572e-08)
(1.5162e-09 8.76193e-07 -1.34494e-07 -4.46643e-09 -4.21209e-09 2.95024e-09)
(3.59292e-12 4.3887e-09 -2.15773e-10 -1.11851e-11 -4.03081e-11 7.59216e-12)
(3.2159e-05 7.36478e-06 -0.00744648 3.21582e-05 4.98412e-07 -6.43172e-05)