/*--------------------------------*- C++ -*----------------------------------*\
| =========                 |                                                 |
| \\      /  F ield         | OpenFOAM: The Open Source CFD Toolbox           |
|  \\    /   O peration     | Version:  2412                                  |
|   \\  /    A nd           | Website:  www.openfoam.com                      |
|    \\/     M anipulation  |                                                 |
\*---------------------------------------------------------------------------*/
FoamFile
{
    version     2.0;
    format      ascii;
    arch        "LSB;label=32;scalar=64";
    class       volSymmTensorField;
    location    "2130";
    object      Tij7;
}
// * * * * * * * * * * * * * * * * * * * * * * * * * * * * * * * * * * * * * //

dimensions      [0 0 0 0 0 0 0];

internalField   nonuniform List<symmTensor> 
2304
(
(-1.9815e-10 2.11159e-13 -2.78496e-13 -2.24783e-16 -6.58196e-15 1.9815e-10)
(-1.97258e-10 6.26906e-13 -2.79163e-13 -1.99046e-15 -1.85194e-14 1.9726e-10)
(-1.95704e-10 1.03231e-12 -2.77762e-13 -5.44109e-15 -2.7251e-14 1.95709e-10)
(-1.93784e-10 1.43056e-12 -2.75923e-13 -1.05548e-14 -3.18043e-14 1.93795e-10)
(-1.91784e-10 1.82189e-12 -2.7372e-13 -1.73011e-14 -3.22273e-14 1.91801e-10)
(-1.89924e-10 2.20423e-12 -2.7118e-13 -2.55765e-14 -2.93248e-14 1.8995e-10)
(-1.88342e-10 2.57388e-12 -2.68302e-13 -3.51705e-14 -2.43218e-14 1.88378e-10)
(-1.87091e-10 2.92617e-12 -2.65068e-13 -4.57636e-14 -1.85751e-14 1.87136e-10)
(-1.86147e-10 3.2559e-12 -2.61428e-13 -5.69472e-14 -1.33655e-14 1.86204e-10)
(-1.85438e-10 3.55797e-12 -2.57343e-13 -6.82649e-14 -9.71659e-15 1.85506e-10)
(-1.84861e-10 3.82777e-12 -2.52769e-13 -7.92575e-14 -8.27321e-15 1.8494e-10)
(-1.84307e-10 4.06172e-12 -2.47701e-13 -8.95103e-14 -9.19734e-15 1.84396e-10)
(-1.83686e-10 4.25764e-12 -2.42126e-13 -9.86859e-14 -1.21967e-14 1.83785e-10)
(-1.82938e-10 4.41462e-12 -2.36027e-13 -1.0653e-13 -1.67596e-14 1.83045e-10)
(-1.82031e-10 4.53222e-12 -2.29304e-13 -1.12839e-13 -2.2517e-14 1.82144e-10)
(-1.80944e-10 4.60985e-12 -2.21837e-13 -1.17437e-13 -2.95502e-14 1.81062e-10)
(-1.7965e-10 4.64572e-12 -2.13372e-13 -1.20127e-13 -3.86285e-14 1.7977e-10)
(-1.78087e-10 4.63669e-12 -2.03853e-13 -1.20704e-13 -5.09516e-14 1.78207e-10)
(-1.76168e-10 4.58068e-12 -1.9333e-13 -1.19076e-13 -6.7866e-14 1.76287e-10)
(-1.73776e-10 4.47482e-12 -1.8145e-13 -1.15176e-13 -9.10278e-14 1.73891e-10)
(-1.70762e-10 4.31675e-12 -1.68419e-13 -1.09032e-13 -1.21755e-13 1.70871e-10)
(-1.66977e-10 4.10672e-12 -1.54324e-13 -1.00841e-13 -1.60725e-13 1.67078e-10)
(-1.62284e-10 3.84803e-12 -1.39699e-13 -9.09694e-14 -2.07683e-13 1.62375e-10)
(-1.56592e-10 3.54852e-12 -1.25078e-13 -7.99683e-14 -2.61164e-13 1.56672e-10)
(-1.4987e-10 3.21968e-12 -1.11197e-13 -6.84814e-14 -3.18613e-13 1.49939e-10)
(-1.42169e-10 2.87655e-12 -9.8844e-14 -5.71976e-14 -3.75969e-13 1.42226e-10)
(-1.33636e-10 2.53573e-12 -8.80053e-14 -4.67333e-14 -4.28161e-13 1.33682e-10)
(-1.24512e-10 2.20919e-12 -7.5984e-14 -3.73878e-14 -4.7337e-13 1.24549e-10)
(-1.14989e-10 1.88388e-12 -5.6597e-14 -2.85135e-14 -5.18978e-13 1.15018e-10)
(-1.05008e-10 1.5488e-12 -3.67075e-14 -1.97531e-14 -5.69216e-13 1.05028e-10)
(-9.45747e-11 1.21322e-12 -1.77772e-14 -1.14874e-14 -6.2069e-13 9.45862e-11)
(-8.37614e-11 8.86905e-13 -4.815e-16 -4.02947e-15 -6.70149e-13 8.37655e-11)
(-7.26803e-11 5.81397e-13 1.40539e-14 2.35999e-15 -7.13927e-13 7.26779e-11)
(-6.14971e-11 3.10679e-13 2.42221e-14 7.48752e-15 -7.46389e-13 6.14896e-11)
(-5.04548e-11 9.02415e-14 2.84773e-14 1.12792e-14 -7.59725e-13 5.04435e-11)
(-3.98823e-11 -6.63256e-14 2.6119e-14 1.38278e-14 -7.45404e-13 3.98685e-11)
(-3.01699e-11 -1.52454e-13 1.80132e-14 1.53553e-14 -6.97234e-13 3.01545e-11)
(-2.17039e-11 -1.73318e-13 6.87777e-15 1.60686e-14 -6.15176e-13 2.16878e-11)
(-1.47717e-11 -1.46819e-13 -3.34308e-15 1.60095e-14 -5.07738e-13 1.47557e-11)
(-9.47676e-12 -9.83532e-14 -9.27043e-15 1.50842e-14 -3.90455e-13 9.46168e-12)
(-5.71206e-12 -5.19497e-14 -9.56788e-15 1.32978e-14 -2.80219e-13 5.69876e-12)
(-3.21184e-12 -2.11997e-14 -6.24086e-15 1.09463e-14 -1.88419e-13 3.20089e-12)
(-1.65635e-12 -6.46787e-15 -2.79658e-15 8.47226e-15 -1.18345e-13 1.64788e-12)
(-7.57997e-13 -1.36989e-15 -8.73114e-16 6.17332e-15 -6.8142e-14 7.51824e-13)
(-2.89998e-13 -1.62726e-16 -1.76135e-16 4.16062e-15 -3.44861e-14 2.85837e-13)
(-8.25425e-14 -2.93719e-18 -1.69371e-17 2.47567e-15 -1.4079e-14 8.00669e-14)
(-1.33853e-14 6.33877e-19 -9.27768e-20 1.16727e-15 -3.77648e-15 1.22181e-14)
(-7.08669e-16 6.52247e-21 -6.63861e-21 3.54335e-16 -3.54334e-16 3.54334e-16)
(-2.31539e-07 2.29822e-10 2.62458e-10 -2.25469e-13 -2.50224e-11 2.31539e-07)
(-2.30503e-07 6.81112e-10 2.61246e-10 -1.99144e-12 -7.06178e-11 2.30505e-07)
(-2.287e-07 1.11766e-09 2.51841e-10 -5.41535e-12 -1.04584e-10 2.28705e-07)
(-2.2647e-07 1.54164e-09 2.40554e-10 -1.04288e-11 -1.23462e-10 2.26481e-07)
(-2.24146e-07 1.95324e-09 2.29276e-10 -1.69507e-11 -1.27409e-10 2.24163e-07)
(-2.21984e-07 2.35087e-09 2.19481e-10 -2.48346e-11 -1.19305e-10 2.22009e-07)
(-2.20144e-07 2.73158e-09 2.12122e-10 -3.38476e-11 -1.03529e-10 2.20178e-07)
(-2.18686e-07 3.09151e-09 2.07641e-10 -4.36734e-11 -8.49335e-11 2.18729e-07)
(-2.17585e-07 3.42623e-09 2.06043e-10 -5.39322e-11 -6.80957e-11 2.17639e-07)
(-2.16757e-07 3.73116e-09 2.06972e-10 -6.42137e-11 -5.66702e-11 2.16821e-07)
(-2.16081e-07 4.00205e-09 2.09871e-10 -7.41112e-11 -5.29538e-11 2.16155e-07)
(-2.15432e-07 4.23548e-09 2.14049e-10 -8.32579e-11 -5.75146e-11 2.15515e-07)
(-2.14705e-07 4.42922e-09 2.18921e-10 -9.13525e-11 -6.92915e-11 2.14796e-07)
(-2.13828e-07 4.58228e-09 2.24152e-10 -9.81658e-11 -8.6441e-11 2.13926e-07)
(-2.12765e-07 4.69425e-09 2.29776e-10 -1.0352e-10 -1.07631e-10 2.12868e-07)
(-2.11492e-07 4.76478e-09 2.36048e-10 -1.0727e-10 -1.33153e-10 2.11599e-07)
(-2.09978e-07 4.79266e-09 2.43456e-10 -1.09268e-10 -1.65767e-10 2.10087e-07)
(-2.08152e-07 4.77575e-09 2.51951e-10 -1.09373e-10 -2.09755e-10 2.08262e-07)
(-2.05888e-07 4.71168e-09 2.6123e-10 -1.07487e-10 -2.69956e-10 2.05995e-07)
(-2.03073e-07 4.59883e-09 2.71164e-10 -1.03556e-10 -3.52348e-10 2.03176e-07)
(-1.99537e-07 4.43587e-09 2.80515e-10 -9.7574e-11 -4.61667e-10 1.99634e-07)
(-1.95109e-07 4.22363e-09 2.88091e-10 -8.96226e-11 -6.0038e-10 1.95199e-07)
(-1.89631e-07 3.96559e-09 2.91942e-10 -7.9872e-11 -7.67641e-10 1.89711e-07)
(-1.82997e-07 3.66894e-09 2.90362e-10 -6.86035e-11 -9.58278e-10 1.83066e-07)
(-1.75173e-07 3.34361e-09 2.81776e-10 -5.61693e-11 -1.16331e-09 1.75229e-07)
(-1.66208e-07 3.00145e-09 2.6506e-10 -4.30165e-11 -1.36842e-09 1.66251e-07)
(-1.56266e-07 2.65441e-09 2.41526e-10 -2.96933e-11 -1.55534e-09 1.56295e-07)
(-1.45622e-07 2.31162e-09 2.19664e-10 -1.653e-11 -1.71719e-09 1.45639e-07)
(-1.34512e-07 1.97183e-09 2.12421e-10 -2.70275e-12 -1.88052e-09 1.34515e-07)
(-1.22859e-07 1.6331e-09 2.07634e-10 1.27652e-11 -2.06065e-09 1.22847e-07)
(-1.10679e-07 1.30118e-09 2.01756e-10 3.01641e-11 -2.2452e-09 1.10649e-07)
(-9.80635e-08 9.83824e-10 1.94237e-10 4.99194e-11 -2.42274e-09 9.80135e-08)
(-8.51448e-08 6.90714e-10 1.83478e-10 7.25796e-11 -2.58048e-09 8.50722e-08)
(-7.21149e-08 4.3308e-10 1.66896e-10 9.84406e-11 -2.69854e-09 7.20165e-08)
(-5.92501e-08 2.22489e-10 1.42133e-10 1.26927e-10 -2.74894e-09 5.91231e-08)
(-4.69221e-08 6.81596e-11 1.08665e-10 1.55841e-10 -2.70067e-09 4.67662e-08)
(-3.55734e-08 -2.66405e-11 6.92051e-11 1.80884e-10 -2.53029e-09 3.53925e-08)
(-2.56476e-08 -6.75037e-11 2.99158e-11 1.96254e-10 -2.23587e-09 2.54513e-08)
(-1.74851e-08 -6.89006e-11 -1.43389e-12 1.96953e-10 -1.84653e-09 1.72882e-08)
(-1.12139e-08 -4.98261e-11 -1.90648e-11 1.81752e-10 -1.41697e-09 1.10321e-08)
(-6.75875e-09 -2.76477e-11 -2.17846e-11 1.55454e-10 -1.01363e-09 6.60329e-09)
(-3.81296e-09 -1.19533e-11 -1.50625e-11 1.25316e-10 -6.79949e-10 3.68764e-09)
(-1.98771e-09 -3.9305e-12 -7.21825e-12 9.64854e-11 -4.27206e-10 1.89122e-09)
(-9.33458e-10 -8.87734e-13 -2.48612e-12 7.08536e-11 -2.47227e-10 8.62605e-10)
(-3.77443e-10 -9.28464e-14 -5.96117e-13 4.85413e-11 -1.26354e-10 3.28901e-10)
(-1.15313e-10 1.20581e-14 -8.0571e-14 2.78808e-11 -4.93728e-11 8.7432e-11)
(-1.19995e-11 1.86562e-15 -1.86132e-15 5.99975e-12 -5.99975e-12 5.99975e-12)
(-1.33853e-14 9.29469e-20 -6.34414e-19 1.2218e-14 -3.77647e-15 1.16727e-15)
(-1.57605e-05 1.44211e-08 5.71884e-08 -1.26558e-11 -2.96902e-09 1.57605e-05)
(-1.56981e-05 4.26565e-08 5.70981e-08 -1.11595e-10 -8.38602e-09 1.56982e-05)
(-1.55895e-05 6.97287e-08 5.63082e-08 -3.02349e-10 -1.24433e-08 1.55898e-05)
(-1.5455e-05 9.56847e-08 5.53529e-08 -5.79003e-10 -1.47332e-08 1.54556e-05)
(-1.53142e-05 1.20524e-07 5.43922e-08 -9.34149e-10 -1.5268e-08 1.53152e-05)
(-1.51827e-05 1.44185e-07 5.35547e-08 -1.35659e-09 -1.43803e-08 1.51841e-05)
(-1.507e-05 1.66552e-07 5.29293e-08 -1.83117e-09 -1.25819e-08 1.50718e-05)
(-1.49796e-05 1.87466e-07 5.2563e-08 -2.33969e-09 -1.04446e-08 1.49819e-05)
(-1.49101e-05 2.06731e-07 5.2464e-08 -2.8623e-09 -8.51007e-09 1.4913e-05)
(-1.48564e-05 2.24139e-07 5.26074e-08 -3.37881e-09 -7.21255e-09 1.48598e-05)
(-1.48111e-05 2.39484e-07 5.29474e-08 -3.86984e-09 -6.82616e-09 1.4815e-05)
(-1.47667e-05 2.52594e-07 5.34238e-08 -4.31792e-09 -7.42063e-09 1.4771e-05)
(-1.47166e-05 2.63352e-07 5.39838e-08 -4.70839e-09 -8.87298e-09 1.47213e-05)
(-1.46565e-05 2.71697e-07 5.45965e-08 -5.02988e-09 -1.09674e-08 1.46615e-05)
(-1.45837e-05 2.77612e-07 5.52642e-08 -5.27387e-09 -1.35477e-08 1.4589e-05)
(-1.44966e-05 2.81094e-07 5.60118e-08 -5.43383e-09 -1.66491e-08 1.4502e-05)
(-1.43928e-05 2.82129e-07 5.68828e-08 -5.50395e-09 -2.05977e-08 1.43983e-05)
(-1.42681e-05 2.80686e-07 5.78708e-08 -5.47881e-09 -2.58962e-08 1.42736e-05)
(-1.41219e-05 2.7682e-07 5.89357e-08 -5.35387e-09 -3.31366e-08 1.41272e-05)
(-1.39409e-05 2.70374e-07 6.00676e-08 -5.11805e-09 -4.30289e-08 1.39461e-05)
(-1.37144e-05 2.61359e-07 6.11372e-08 -4.76046e-09 -5.61471e-08 1.37191e-05)
(-1.34316e-05 2.49862e-07 6.20086e-08 -4.26593e-09 -7.28114e-08 1.34358e-05)
(-1.30822e-05 2.36072e-07 6.24701e-08 -3.61554e-09 -9.29608e-08 1.30858e-05)
(-1.26593e-05 2.20311e-07 6.23266e-08 -2.79061e-09 -1.16032e-07 1.26621e-05)
(-1.21599e-05 2.0297e-07 6.13995e-08 -1.77608e-09 -1.41036e-07 1.21616e-05)
(-1.15856e-05 1.84405e-07 5.95399e-08 -5.73134e-10 -1.66378e-07 1.15862e-05)
(-1.09442e-05 1.64842e-07 5.67701e-08 7.84184e-10 -1.89941e-07 1.09435e-05)
(-1.02511e-05 1.4458e-07 5.37026e-08 2.26698e-09 -2.10838e-07 1.02488e-05)
(-9.5213e-06 1.24488e-07 5.14109e-08 4.00426e-09 -2.32193e-07 9.51729e-06)
(-8.7489e-06 1.05192e-07 4.89664e-08 6.18746e-09 -2.55843e-07 8.74271e-06)
(-7.93511e-06 8.6727e-08 4.60933e-08 8.93172e-09 -2.80343e-07 7.92618e-06)
(-7.08571e-06 6.9326e-08 4.27704e-08 1.2386e-08 -3.04411e-07 7.07333e-06)
(-6.20889e-06 5.33684e-08 3.88843e-08 1.67294e-08 -3.26579e-07 6.19216e-06)
(-5.31638e-06 3.92671e-08 3.42526e-08 2.2086e-08 -3.44448e-07 5.29429e-06)
(-4.42538e-06 2.73886e-08 2.87395e-08 2.83811e-08 -3.54498e-07 4.397e-06)
(-3.55958e-06 1.79689e-08 2.24021e-08 3.51561e-08 -3.52576e-07 3.52443e-06)
(-2.7482e-06 1.1027e-08 1.56124e-08 4.14258e-08 -3.35105e-07 2.70677e-06)
(-2.02247e-06 6.31853e-09 9.07419e-09 4.57648e-08 -3.00868e-07 1.97671e-06)
(-1.40998e-06 3.38236e-09 3.64643e-09 4.6812e-08 -2.52643e-07 1.36317e-06)
(-9.29507e-07 1.70567e-09 -1.40814e-11 4.41705e-08 -1.97759e-07 8.85337e-07)
(-5.76291e-07 7.99934e-10 -1.60813e-09 3.85187e-08 -1.43925e-07 5.37772e-07)
(-3.35102e-07 3.44407e-10 -1.54808e-09 3.15361e-08 -9.78432e-08 3.03566e-07)
(-1.8115e-07 1.56127e-10 -8.74164e-10 2.45579e-08 -6.2013e-08 1.56592e-07)
(-8.80812e-08 8.18665e-11 -3.33996e-10 1.78512e-08 -3.54076e-08 7.023e-08)
(-3.37016e-08 3.4856e-11 -7.85023e-11 1.06188e-08 -1.5656e-08 2.30828e-08)
(-5.84273e-09 5.83919e-12 -5.83432e-12 2.92137e-09 -2.92137e-09 2.92136e-09)
(-1.15313e-10 8.06317e-14 -1.19854e-14 8.74319e-11 -4.93727e-11 2.78807e-11)
(-8.25424e-14 1.695e-17 2.95189e-18 8.00668e-14 -1.4079e-14 2.47566e-15)
(-0.000183157 1.52487e-07 -6.90777e-07 -1.1329e-10 -4.94481e-08 0.000183157)
(-0.000182638 4.50101e-07 -6.91578e-07 -9.99923e-10 -1.396e-07 0.000182639)
(-0.000181733 7.32438e-07 -6.85162e-07 -2.71007e-09 -2.069e-07 0.000181736)
(-0.000180611 9.98759e-07 -6.77149e-07 -5.18235e-09 -2.44308e-07 0.000180616)
(-0.000179437 1.24887e-06 -6.68106e-07 -8.32541e-09 -2.51859e-07 0.000179446)
(-0.000178341 1.48261e-06 -6.58334e-07 -1.20011e-08 -2.35065e-07 0.000178353)
(-0.000177404 1.69972e-06 -6.47844e-07 -1.60394e-08 -2.02616e-07 0.00017742)
(-0.000176656 1.89969e-06 -6.36397e-07 -2.02625e-08 -1.64375e-07 0.000176676)
(-0.000176086 2.0817e-06 -6.23602e-07 -2.45032e-08 -1.29787e-07 0.00017611)
(-0.000175648 2.2447e-06 -6.09034e-07 -2.86119e-08 -1.06487e-07 0.000175677)
(-0.000175281 2.38748e-06 -5.92285e-07 -3.24538e-08 -9.93507e-08 0.000175313)
(-0.000174916 2.50885e-06 -5.73068e-07 -3.59054e-08 -1.09729e-07 0.000174952)
(-0.000174496 2.60784e-06 -5.51125e-07 -3.88556e-08 -1.35651e-07 0.000174535)
(-0.000173979 2.68387e-06 -5.26118e-07 -4.12127e-08 -1.73546e-07 0.000174021)
(-0.00017334 2.73682e-06 -4.97508e-07 -4.29092e-08 -2.20867e-07 0.000173383)
(-0.000172556 2.767e-06 -4.64566e-07 -4.38962e-08 -2.784e-07 0.0001726)
(-0.000171604 2.77522e-06 -4.26315e-07 -4.41311e-08 -3.51994e-07 0.000171648)
(-0.000170445 2.76294e-06 -3.82384e-07 -4.35632e-08 -4.50716e-07 0.000170488)
(-0.000169095 2.73127e-06 -3.3321e-07 -4.20552e-08 -5.85035e-07 0.000169138)
(-0.000167413 2.67933e-06 -2.77242e-07 -3.93212e-08 -7.67619e-07 0.000167453)
(-0.000165297 2.60891e-06 -2.14919e-07 -3.49719e-08 -1.00946e-06 0.000165332)
(-0.000162648 2.52151e-06 -1.46887e-07 -2.8384e-08 -1.31747e-06 0.000162676)
(-0.000159363 2.41874e-06 -7.49652e-08 -1.87161e-08 -1.69238e-06 0.000159382)
(-0.000155367 2.30233e-06 -1.18233e-09 -5.01041e-09 -2.12657e-06 0.000155372)
(-0.000150614 2.17327e-06 7.22052e-08 1.36929e-08 -2.60582e-06 0.0001506)
(-0.00014509 2.02982e-06 1.42505e-07 3.80492e-08 -3.10654e-06 0.000145052)
(-0.000138817 1.8653e-06 2.06855e-07 6.79911e-08 -3.59602e-06 0.000138749)
(-0.000131871 1.67591e-06 2.65341e-07 1.03519e-07 -4.05886e-06 0.000131768)
(-0.00012436 1.48722e-06 3.24353e-07 1.484e-07 -4.54726e-06 0.000124212)
(-0.000116212 1.3211e-06 3.78773e-07 2.084e-07 -5.09524e-06 0.000116004)
(-0.000107424 1.17068e-06 4.25975e-07 2.88074e-07 -5.68182e-06 0.000107136)
(-9.80255e-05 1.03419e-06 4.64041e-07 3.93487e-07 -6.28845e-06 9.76321e-05)
(-8.80695e-05 9.12175e-07 4.89125e-07 5.32249e-07 -6.89129e-06 8.75372e-05)
(-7.76441e-05 8.03932e-07 4.96179e-07 7.1133e-07 -7.44606e-06 7.69328e-05)
(-6.68965e-05 7.06007e-07 4.80455e-07 9.32888e-07 -7.88107e-06 6.59636e-05)
(-5.60469e-05 6.12194e-07 4.39222e-07 1.18796e-06 -8.10053e-06 5.48589e-05)
(-4.53923e-05 5.15089e-07 3.73062e-07 1.44954e-06 -8.00161e-06 4.39428e-05)
(-3.5294e-05 4.0935e-07 2.86474e-07 1.67016e-06 -7.50803e-06 3.36238e-05)
(-2.61508e-05 2.96215e-07 1.87981e-07 1.79198e-06 -6.61534e-06 2.43588e-05)
(-1.83659e-05 1.879e-07 8.90476e-08 1.77533e-06 -5.43105e-06 1.65906e-05)
(-1.21125e-05 1.00025e-07 1.25564e-08 1.61645e-06 -4.12019e-06 1.04961e-05)
(-7.43232e-06 4.37149e-08 -2.03177e-08 1.35993e-06 -2.87384e-06 6.07239e-06)
(-4.1101e-06 1.66688e-08 -1.90164e-08 1.04064e-06 -1.78724e-06 3.06946e-06)
(-1.82303e-06 5.81786e-09 -7.85968e-09 6.47766e-07 -8.72522e-07 1.17526e-06)
(-4.60121e-07 1.27729e-09 -1.27677e-09 2.3006e-07 -2.3006e-07 2.3006e-07)
(-3.37015e-08 7.85344e-11 -3.48206e-11 2.30828e-08 -1.5656e-08 1.06187e-08)
(-3.77442e-10 5.96359e-13 9.31787e-14 3.28901e-10 -1.26354e-10 4.85411e-11)
(-2.89997e-13 1.76207e-16 1.62872e-16 2.85837e-13 -3.4486e-14 4.16061e-15)
(-0.000620953 4.54239e-07 -5.84379e-06 -2.43621e-10 -2.30376e-07 0.000620953)
(-0.000619984 1.33683e-06 -5.87794e-06 -2.17328e-09 -6.50475e-07 0.000619986)
(-0.000618299 2.16281e-06 -5.87958e-06 -5.99687e-09 -9.6431e-07 0.000618305)
(-0.000616229 2.92589e-06 -5.87916e-06 -1.16835e-08 -1.13883e-06 0.000616241)
(-0.000614093 3.62428e-06 -5.87222e-06 -1.90131e-08 -1.17355e-06 0.000614112)
(-0.00061214 4.25898e-06 -5.85477e-06 -2.75301e-08 -1.09365e-06 0.000612167)
(-0.000610529 4.83264e-06 -5.82379e-06 -3.66609e-08 -9.39815e-07 0.000610566)
(-0.00060932 5.34812e-06 -5.77749e-06 -4.5866e-08 -7.58893e-07 0.000609366)
(-0.000608485 5.8077e-06 -5.71519e-06 -5.47361e-08 -5.96139e-07 0.00060854)
(-0.000607931 6.21244e-06 -5.63727e-06 -6.29946e-08 -4.88389e-07 0.000607994)
(-0.000607527 6.56207e-06 -5.5448e-06 -7.04349e-08 -4.59425e-07 0.000607598)
(-0.000607135 6.85529e-06 -5.43946e-06 -7.68545e-08 -5.1648e-07 0.000607212)
(-0.000606627 7.09019e-06 -5.32285e-06 -8.203e-08 -6.51407e-07 0.000606709)
(-0.000605905 7.26538e-06 -5.19587e-06 -8.57492e-08 -8.48797e-07 0.00060599)
(-0.000604893 7.38099e-06 -5.05821e-06 -8.78398e-08 -1.09829e-06 0.000604981)
(-0.000603528 7.43933e-06 -4.90875e-06 -8.814e-08 -1.40548e-06 0.000603616)
(-0.00060173 7.44598e-06 -4.7455e-06 -8.63968e-08 -1.80023e-06 0.000601817)
(-0.000599413 7.41015e-06 -4.56787e-06 -8.21178e-08 -2.32867e-06 0.000599496)
(-0.000596637 7.33636e-06 -4.37284e-06 -7.41599e-08 -3.04094e-06 0.000596712)
(-0.000593049 7.22659e-06 -4.16341e-06 -6.04124e-08 -3.99879e-06 0.000593109)
(-0.000588418 7.09178e-06 -3.9439e-06 -3.75842e-08 -5.26107e-06 0.000588455)
(-0.000582522 6.93965e-06 -3.71727e-06 -6.33044e-10 -6.86889e-06 0.000582522)
(-0.00057512 6.77625e-06 -3.49056e-06 5.72155e-08 -8.83685e-06 0.000575062)
(-0.000566014 6.60472e-06 -3.26816e-06 1.43844e-07 -1.11428e-05 0.00056587)
(-0.000555065 6.42283e-06 -3.05019e-06 2.67632e-07 -1.37386e-05 0.000554798)
(-0.000542173 6.21153e-06 -2.83431e-06 4.36105e-07 -1.6545e-05 0.000541737)
(-0.000527233 5.90949e-06 -2.62074e-06 6.54701e-07 -1.9455e-05 0.000526578)
(-0.000510101 5.43759e-06 -2.3774e-06 9.32139e-07 -2.24277e-05 0.000509169)
(-0.000490609 4.96674e-06 -1.94187e-06 1.2995e-06 -2.568e-05 0.00048931)
(-0.000468755 4.69407e-06 -1.50498e-06 1.80389e-06 -2.93837e-05 0.000466951)
(-0.000444465 4.54247e-06 -1.07321e-06 2.49452e-06 -3.35007e-05 0.00044197)
(-0.000417678 4.49663e-06 -6.57082e-07 3.43799e-06 -3.79957e-05 0.00041424)
(-0.000388388 4.55566e-06 -2.68899e-07 4.72144e-06 -4.27982e-05 0.000383667)
(-0.00035669 4.70238e-06 8.46136e-08 6.44152e-06 -4.77279e-05 0.000350248)
(-0.0003228 4.88709e-06 4.08103e-07 8.67819e-06 -5.24395e-05 0.000314122)
(-0.000287047 5.02087e-06 7.16036e-07 1.14462e-05 -5.63935e-05 0.000275601)
(-0.000249833 4.98034e-06 1.01664e-06 1.4623e-05 -5.88667e-05 0.00023521)
(-0.000211611 4.63103e-06 1.28012e-06 1.78703e-05 -5.90363e-05 0.000193741)
(-0.000172927 3.87775e-06 1.4054e-06 2.05933e-05 -5.61611e-05 0.000152334)
(-0.000134574 2.77189e-06 1.18573e-06 2.20028e-05 -4.98595e-05 0.000112571)
(-9.74296e-05 1.56538e-06 5.96137e-07 2.13362e-05 -4.03275e-05 7.60934e-05)
(-6.32316e-05 6.47294e-07 5.91042e-08 1.82855e-05 -2.8674e-05 4.49461e-05)
(-3.35478e-05 2.01473e-07 -1.12854e-07 1.27764e-05 -1.62908e-05 2.07714e-05)
(-1.16642e-05 5.31419e-08 -5.31272e-08 5.83211e-06 -5.83211e-06 5.83211e-06)
(-1.82303e-06 7.86188e-09 -5.81557e-09 1.17526e-06 -8.72521e-07 6.47764e-07)
(-8.8081e-08 3.34088e-10 -8.17571e-11 7.02299e-08 -3.54075e-08 1.78511e-08)
(-9.33456e-10 2.48679e-12 8.88818e-13 8.62603e-10 -2.47226e-10 7.08532e-11)
(-7.57996e-13 8.73336e-16 1.37057e-15 7.51822e-13 -6.81418e-14 6.17329e-15)
(-0.0010208 6.07601e-07 8.68607e-07 -1.0089e-10 -5.16454e-07 0.0010208)
(-0.0010201 1.78e-06 8.23482e-07 -1.02436e-09 -1.45865e-06 0.0010201)
(-0.00101893 2.85708e-06 7.36563e-07 -3.42093e-09 -2.16475e-06 0.00101894)
(-0.00101757 3.82505e-06 6.37302e-07 -7.9371e-09 -2.56257e-06 0.00101758)
(-0.00101627 4.67879e-06 5.48365e-07 -1.46397e-08 -2.65077e-06 0.00101628)
(-0.00101525 5.4214e-06 4.88513e-07 -2.28813e-08 -2.48487e-06 0.00101527)
(-0.00101462 6.06101e-06 4.70715e-07 -3.16402e-08 -2.15532e-06 0.00101465)
(-0.00101443 6.60737e-06 5.01329e-07 -3.99698e-08 -1.76706e-06 0.00101447)
(-0.00101464 7.06962e-06 5.80916e-07 -4.72778e-08 -1.42174e-06 0.00101468)
(-0.00101515 7.45469e-06 7.05157e-07 -5.3331e-08 -1.20244e-06 0.00101521)
(-0.00101585 7.76676e-06 8.66518e-07 -5.80643e-08 -1.16331e-06 0.00101591)
(-0.0010166 8.00761e-06 1.0553e-06 -6.13755e-08 -1.32271e-06 0.00101666)
(-0.00101726 8.17718e-06 1.26195e-06 -6.3035e-08 -1.66644e-06 0.00101733)
(-0.00101772 8.2751e-06 1.47865e-06 -6.27281e-08 -2.1656e-06 0.00101778)
(-0.00101786 8.30272e-06 1.70092e-06 -6.00819e-08 -2.80327e-06 0.00101792)
(-0.00101756 8.26426e-06 1.9264e-06 -5.45077e-08 -3.59808e-06 0.00101762)
(-0.0010167 8.16748e-06 2.15483e-06 -4.47597e-08 -4.62183e-06 0.00101675)
(-0.00101517 8.02082e-06 2.38369e-06 -2.83462e-08 -5.98192e-06 0.0010152)
(-0.00101305 7.838e-06 2.61904e-06 -1.0419e-09 -7.79067e-06 0.00101305)
(-0.00100992 7.63238e-06 2.84212e-06 4.46495e-08 -1.01872e-05 0.00100988)
(-0.00100555 7.41514e-06 3.03415e-06 1.20938e-07 -1.33105e-05 0.00100543)
(-0.000999723 7.19724e-06 3.1822e-06 2.45574e-07 -1.72634e-05 0.000999478)
(-0.000992212 6.98662e-06 3.26324e-06 4.42026e-07 -2.20952e-05 0.00099177)
(-0.000982826 6.78225e-06 3.26414e-06 7.37719e-07 -2.778e-05 0.000982088)
(-0.000971441 6.57705e-06 3.18989e-06 1.16271e-06 -3.42469e-05 0.000970278)
(-0.000957955 6.34096e-06 3.06375e-06 1.74788e-06 -4.13904e-05 0.000956207)
(-0.000942176 5.90553e-06 2.89861e-06 2.52784e-06 -4.91108e-05 0.000939649)
(-0.000923732 4.86588e-06 2.61003e-06 3.56436e-06 -5.74891e-05 0.000920167)
(-0.000902154 3.98558e-06 2.14217e-06 4.96687e-06 -6.68827e-05 0.000897187)
(-0.000877444 3.84384e-06 1.66126e-06 6.90195e-06 -7.7616e-05 0.000870542)
(-0.000849578 4.03805e-06 1.16781e-06 9.58454e-06 -8.98225e-05 0.000839993)
(-0.000818508 4.54935e-06 6.78433e-07 1.32992e-05 -0.000103585 0.000805209)
(-0.000784361 5.3954e-06 2.48488e-07 1.84229e-05 -0.00011891 0.000765938)
(-0.00074747 6.55233e-06 -2.55101e-08 2.54124e-05 -0.000135612 0.000722058)
(-0.000708261 7.92854e-06 -1.94678e-08 3.47531e-05 -0.000153187 0.000673508)
(-0.00066698 9.36271e-06 3.84358e-07 4.68443e-05 -0.000170684 0.000620135)
(-0.000623247 1.06323e-05 1.2429e-06 6.17783e-05 -0.000186538 0.000561469)
(-0.000575501 1.14474e-05 2.49291e-06 7.89757e-05 -0.000198361 0.000496525)
(-0.000520357 1.13345e-05 3.91549e-06 9.66175e-05 -0.000202689 0.00042374)
(-0.000451373 9.64069e-06 4.51327e-06 0.000110532 -0.000194387 0.000340841)
(-0.000359177 6.03641e-06 2.95743e-06 0.00011322 -0.000167008 0.000245958)
(-0.000242432 2.32545e-06 4.35525e-07 9.66946e-05 -0.000118728 0.000145737)
(-0.000119515 5.05201e-07 -5.05064e-07 5.97574e-05 -5.97573e-05 5.97573e-05)
(-3.35477e-05 1.12896e-07 -2.0143e-07 2.07714e-05 -1.62908e-05 1.27763e-05)
(-4.11009e-06 1.90216e-08 -1.66632e-08 3.06945e-06 -1.78724e-06 1.04064e-06)
(-1.8115e-07 8.74362e-10 -1.55865e-10 1.56592e-07 -6.20128e-08 2.45578e-08)
(-1.9877e-09 7.21974e-12 3.93341e-12 1.89122e-09 -4.27204e-10 9.6485e-11)
(-1.65635e-12 2.7971e-15 6.47007e-15 1.64788e-12 -1.18344e-13 8.4722e-15)
(-0.00115425 4.96332e-07 6.02531e-06 2.83146e-10 -7.59679e-07 0.00115425)
(-0.00115424 1.44413e-06 6.08336e-06 2.13944e-09 -2.14187e-06 0.00115424)
(-0.00115424 2.29109e-06 6.06462e-06 4.10651e-09 -3.17261e-06 0.00115424)
(-0.00115424 3.01975e-06 6.04699e-06 4.16994e-09 -3.74843e-06 0.00115423)
(-0.00115423 3.6213e-06 6.03748e-06 1.4672e-09 -3.86702e-06 0.00115423)
(-0.00115423 4.09808e-06 6.04333e-06 -3.38269e-09 -3.61176e-06 0.00115423)
(-0.00115423 4.4593e-06 6.0713e-06 -8.92812e-09 -3.11871e-06 0.00115424)
(-0.00115422 4.71696e-06 6.12744e-06 -1.37715e-08 -2.54586e-06 0.00115424)
(-0.00115422 4.88319e-06 6.21638e-06 -1.71255e-08 -2.046e-06 0.00115424)
(-0.00115422 4.96851e-06 6.34067e-06 -1.88358e-08 -1.74359e-06 0.00115423)
(-0.00115421 4.98116e-06 6.50083e-06 -1.90169e-08 -1.71998e-06 0.00115423)
(-0.0011542 4.92697e-06 6.69485e-06 -1.76463e-08 -2.00538e-06 0.00115422)
(-0.0011542 4.80916e-06 6.92017e-06 -1.43759e-08 -2.58535e-06 0.00115421)
(-0.00115419 4.62893e-06 7.17544e-06 -8.55979e-09 -3.427e-06 0.0011542)
(-0.00115418 4.38703e-06 7.4624e-06 7.7748e-10 -4.5166e-06 0.00115418)
(-0.00115416 4.08486e-06 7.78634e-06 1.53387e-08 -5.89191e-06 0.00115415)
(-0.00115415 3.72455e-06 8.15699e-06 3.85384e-08 -7.66518e-06 0.00115411)
(-0.00115412 3.30472e-06 8.57676e-06 7.66963e-08 -9.99637e-06 0.00115405)
(-0.00115409 2.83772e-06 9.04299e-06 1.4025e-07 -1.3057e-05 0.00115395)
(-0.00115406 2.3369e-06 9.56909e-06 2.47035e-07 -1.70638e-05 0.00115381)
(-0.00115402 1.79859e-06 1.0147e-05 4.25173e-07 -2.22362e-05 0.00115359)
(-0.00115396 1.21964e-06 1.07755e-05 7.15204e-07 -2.8758e-05 0.00115325)
(-0.0011539 5.91326e-07 1.14371e-05 1.17109e-06 -3.67542e-05 0.00115273)
(-0.00115384 -1.12817e-07 1.21207e-05 1.85779e-06 -4.62631e-05 0.00115198)
(-0.00115376 -9.22044e-07 1.28324e-05 2.85119e-06 -5.72847e-05 0.00115091)
(-0.00115367 -1.85273e-06 1.36028e-05 4.23998e-06 -6.98184e-05 0.00114943)
(-0.00115355 -2.89817e-06 1.44583e-05 6.13629e-06 -8.39299e-05 0.00114741)
(-0.00115092 -4.0727e-06 1.50286e-05 8.69969e-06 -9.97223e-05 0.00114222)
(-0.00113173 -5.02669e-06 1.3875e-05 1.20893e-05 -0.000116398 0.00111964)
(-0.00111056 -5.99684e-06 1.26081e-05 1.67757e-05 -0.00013553 0.00109378)
(-0.00108786 -6.97663e-06 1.13259e-05 2.32427e-05 -0.000157392 0.00106462)
(-0.00106431 -7.96332e-06 1.00435e-05 3.21529e-05 -0.000182274 0.00103215)
(-0.00104093 -8.92342e-06 8.82537e-06 4.43782e-05 -0.000210412 0.000996557)
(-0.00101905 -9.77962e-06 7.77408e-06 6.10051e-05 -0.000241874 0.000958044)
(-0.000999855 -1.03542e-05 7.01033e-06 8.32929e-05 -0.000276415 0.000916562)
(-0.000983815 -1.03076e-05 6.67162e-06 0.000112524 -0.000313204 0.00087129)
(-0.000969635 -9.14122e-06 6.93028e-06 0.000149618 -0.000350316 0.000820018)
(-0.000952711 -6.35695e-06 7.96322e-06 0.000194249 -0.000383842 0.000758462)
(-0.000923034 -2.18922e-06 9.97098e-06 0.000243167 -0.00040661 0.000679867)
(-0.000862031 1.3566e-06 1.06731e-05 0.00028686 -0.000406259 0.000575171)
(-0.000733183 3.24914e-06 5.99398e-06 0.000301433 -0.00036081 0.00043175)
(-0.000508581 7.93824e-07 -7.93408e-07 0.000254291 -0.00025429 0.00025429)
(-0.000242431 -4.35261e-07 -2.3252e-06 0.000145737 -0.000118728 9.66942e-05)
(-6.32314e-05 -5.90228e-08 -6.47213e-07 4.4946e-05 -2.86738e-05 1.82854e-05)
(-7.4323e-06 2.03273e-08 -4.37038e-08 6.07237e-06 -2.87383e-06 1.35992e-06)
(-3.35101e-07 1.54846e-09 -3.43847e-10 3.03565e-07 -9.78429e-08 3.1536e-08)
(-3.81295e-09 1.50653e-11 1.19601e-11 3.68763e-09 -6.79947e-10 1.25315e-10)
(-3.21183e-12 6.24188e-15 2.12054e-14 3.20089e-12 -1.88418e-13 1.09462e-14)
(-0.00115429 3.01389e-07 -4.39117e-06 6.97359e-10 -9.45322e-07 0.00115429)
(-0.00115429 8.65189e-07 -4.36258e-06 5.48383e-09 -2.65728e-06 0.00115428)
(-0.00115429 1.33592e-06 -4.35134e-06 1.18047e-08 -3.92062e-06 0.00115428)
(-0.00115429 1.69151e-06 -4.32937e-06 1.59962e-08 -4.6116e-06 0.00115427)
(-0.00115429 1.92106e-06 -4.29048e-06 1.62511e-08 -4.73089e-06 0.00115427)
(-0.00115429 2.02638e-06 -4.22783e-06 1.31841e-08 -4.38855e-06 0.00115428)
(-0.00115429 2.01735e-06 -4.13489e-06 8.77053e-09 -3.76021e-06 0.00115429)
(-0.0011543 1.90746e-06 -4.00538e-06 4.92957e-09 -3.04767e-06 0.0011543)
(-0.00115431 1.71087e-06 -3.83446e-06 2.66652e-09 -2.44485e-06 0.00115431)
(-0.00115432 1.44054e-06 -3.61942e-06 2.07372e-09 -2.10947e-06 0.00115432)
(-0.00115433 1.10708e-06 -3.35976e-06 2.94008e-09 -2.14608e-06 0.00115433)
(-0.00115435 7.17485e-07 -3.05794e-06 5.4121e-09 -2.59853e-06 0.00115434)
(-0.00115436 2.73789e-07 -2.71727e-06 1.03055e-08 -3.4593e-06 0.00115435)
(-0.00115437 -2.26803e-07 -2.33976e-06 1.90991e-08 -4.70138e-06 0.00115435)
(-0.00115438 -7.90128e-07 -1.92405e-06 3.40679e-08 -6.32197e-06 0.00115435)
(-0.00115439 -1.42269e-06 -1.46416e-06 5.9046e-08 -8.37933e-06 0.00115433)
(-0.0011544 -2.12827e-06 -9.4758e-07 1.012e-07 -1.10174e-05 0.0011543)
(-0.0011544 -2.91012e-06 -3.71949e-07 1.7309e-07 -1.44319e-05 0.00115423)
(-0.0011544 -3.76638e-06 2.61335e-07 2.95237e-07 -1.88384e-05 0.0011541)
(-0.00115439 -4.69259e-06 9.69979e-07 5.01338e-07 -2.45011e-05 0.00115389)
(-0.00115437 -5.6941e-06 1.74605e-06 8.42334e-07 -3.16782e-05 0.00115353)
(-0.00115434 -6.77995e-06 2.59382e-06 1.39004e-06 -4.05872e-05 0.00115295)
(-0.00115429 -7.96573e-06 3.49384e-06 2.2384e-06 -5.13772e-05 0.00115205)
(-0.00115423 -9.2916e-06 4.43125e-06 3.49937e-06 -6.40966e-05 0.00115073)
(-0.00115414 -1.07978e-05 5.40128e-06 5.30486e-06 -7.87569e-05 0.00114884)
(-0.00115403 -1.24822e-05 6.40721e-06 7.81556e-06 -9.53947e-05 0.00114622)
(-0.0011539 -1.41363e-05 7.46451e-06 1.12455e-05 -0.000114137 0.00114265)
(-0.00115374 -1.52603e-05 8.60241e-06 1.59091e-05 -0.000135284 0.00113783)
(-0.00115358 -1.68866e-05 9.54688e-06 2.22955e-05 -0.00015956 0.00113128)
(-0.00115339 -1.99141e-05 1.03225e-05 3.10699e-05 -0.000187596 0.00112232)
(-0.00115313 -2.37119e-05 1.09676e-05 4.3069e-05 -0.000219673 0.00111006)
(-0.00115281 -2.80979e-05 1.13491e-05 5.93476e-05 -0.000255946 0.00109347)
(-0.00115242 -3.28162e-05 1.131e-05 8.11539e-05 -0.000296238 0.00107127)
(-0.00115198 -3.73857e-05 1.07269e-05 0.000109861 -0.000339893 0.00104212)
(-0.00115152 -4.10404e-05 9.60164e-06 0.000146846 -0.00038568 0.00100467)
(-0.00115109 -4.28026e-05 8.20382e-06 0.000193327 -0.000431779 0.00095776)
(-0.00115076 -4.17361e-05 7.1923e-06 0.000250161 -0.000475837 0.000900599)
(-0.00115055 -3.71713e-05 7.56303e-06 0.000317602 -0.000515081 0.000832944)
(-0.00115033 -2.88659e-05 1.14573e-05 0.000394924 -0.000546447 0.000755403)
(-0.00115 -2.20246e-05 1.87475e-05 0.000481052 -0.000567292 0.000668947)
(-0.00102481 -1.24874e-05 1.24881e-05 0.000512407 -0.000512407 0.000512407)
(-0.000733181 -5.99332e-06 -3.24872e-06 0.000431749 -0.000360809 0.000301432)
(-0.000359176 -2.95703e-06 -6.03609e-06 0.000245957 -0.000167007 0.000113219)
(-9.74291e-05 -5.96007e-07 -1.56525e-06 7.6093e-05 -4.03273e-05 2.13361e-05)
(-1.21125e-05 -1.25403e-08 -1.00005e-07 1.0496e-05 -4.12017e-06 1.61645e-06)
(-5.76289e-07 1.60877e-09 -7.98838e-10 5.37771e-07 -1.43925e-07 3.85186e-08)
(-6.75872e-09 2.17896e-11 2.76619e-11 6.60327e-09 -1.01363e-09 1.55453e-10)