/*--------------------------------*- C++ -*----------------------------------*\
| =========                 |                                                 |
| \\      /  F ield         | OpenFOAM: The Open Source CFD Toolbox           |
|  \\    /   O peration     | Version:  2412                                  |
|   \\  /    A nd           | Website:  www.openfoam.com                      |
|    \\/     M anipulation  |                                                 |
\*---------------------------------------------------------------------------*/
FoamFile
{
    version     2.0;
    format      ascii;
    arch        "LSB;label=32;scalar=64";
    class       volSymmTensorField;
    location    "2130";
    object      Tij8;
}
// * * * * * * * * * * * * * * * * * * * * * * * * * * * * * * * * * * * * * //

dimensions      [0 0 0 0 0 0 0];

internalField   nonuniform List<symmTensor> 
2304
(
(7.82797e-16 -4.01024e-17 1.11376e-18 8.35576e-20 1.39193e-17 -7.8288e-16)
(7.90349e-16 -2.4747e-17 1.25306e-18 1.40902e-19 4.30377e-17 -7.9049e-16)
(7.89695e-16 3.47652e-17 1.51985e-18 -4.10487e-19 7.47897e-17 -7.89284e-16)
(7.87841e-16 4.30886e-17 1.93607e-18 -7.16891e-19 1.09419e-16 -7.87124e-16)
(7.84235e-16 5.15993e-17 2.51725e-18 -1.10348e-18 1.46334e-16 -7.83132e-16)
(7.78033e-16 6.13546e-17 3.24717e-18 -1.59039e-18 1.83356e-16 -7.76442e-16)
(7.68656e-16 7.24792e-17 4.07584e-18 -2.18745e-18 2.17559e-16 -7.66468e-16)
(7.55863e-16 8.50743e-17 4.92365e-18 -2.9036e-18 2.45933e-16 -7.5296e-16)
(7.39659e-16 9.90985e-17 5.69562e-18 -3.74169e-18 2.65994e-16 -7.35918e-16)
(7.20362e-16 1.14457e-16 6.30223e-18 -4.69836e-18 2.76231e-16 -7.15664e-16)
(6.98381e-16 1.31041e-16 6.67673e-18 -5.76411e-18 2.76249e-16 -6.92617e-16)
(6.74305e-16 1.49013e-16 6.78531e-18 -6.9358e-18 2.66656e-16 -6.67369e-16)
(6.48544e-16 1.68694e-16 6.62052e-18 -8.21566e-18 2.48505e-16 -6.40328e-16)
(6.21332e-16 1.91392e-16 6.18054e-18 -9.65333e-18 2.22437e-16 -6.11679e-16)
(5.9239e-16 2.18152e-16 5.45439e-18 -1.12895e-17 1.88307e-16 -5.811e-16)
(5.6145e-16 2.51377e-16 4.41567e-18 -1.32314e-17 1.45018e-16 -5.48219e-16)
(5.27651e-16 2.9104e-16 3.03376e-18 -1.54537e-17 9.10218e-17 -5.12197e-16)
(4.90948e-16 3.30365e-16 1.36246e-18 -1.7558e-17 2.75049e-17 -4.7339e-16)
(4.52747e-16 3.79433e-16 -4.97611e-19 -2.00084e-17 -4.34435e-17 -4.32738e-16)
(4.1223e-16 4.39056e-16 -2.44555e-18 -2.27609e-17 -1.20158e-16 -3.89469e-16)
(3.70709e-16 5.04032e-16 -4.29011e-18 -2.54377e-17 -1.97896e-16 -3.45272e-16)
(3.28855e-16 5.71916e-16 -5.79865e-18 -2.78102e-17 -2.69998e-16 -3.01044e-16)
(2.8841e-16 6.34198e-16 -6.74616e-18 -2.93964e-17 -3.28689e-16 -2.59014e-16)
(2.50678e-16 6.8489e-16 -6.98258e-18 -2.99474e-17 -3.6687e-16 -2.2073e-16)
(2.16782e-16 7.08879e-16 -6.48905e-18 -2.89499e-17 -3.7922e-16 -1.87832e-16)
(1.88278e-16 7.05807e-16 -5.36919e-18 -2.67224e-17 -3.63658e-16 -1.61555e-16)
(1.65791e-16 7.18044e-16 -3.81018e-18 -2.52237e-17 -3.27399e-16 -1.40567e-16)
(1.50004e-16 9.97785e-16 -1.57209e-18 -3.31652e-17 -3.07058e-16 -1.16839e-16)
(1.16445e-16 1.29756e-15 6.45489e-19 -3.97478e-17 -3.21057e-16 -7.66969e-17)
(8.0249e-17 1.4e-15 2.67822e-18 -3.78213e-17 -3.34519e-16 -4.24277e-17)
(5.29345e-17 1.50866e-15 5.73596e-18 -3.4624e-17 -3.2537e-16 -1.83105e-17)
(3.55085e-17 1.6001e-15 9.70857e-18 -2.9449e-17 -2.9235e-16 -6.05953e-18)
(2.84286e-17 1.63844e-15 1.42316e-17 -2.1941e-17 -2.32725e-16 -6.4876e-18)
(2.98288e-17 1.57308e-15 1.83379e-17 -1.26323e-17 -1.48174e-16 -1.71964e-17)
(3.43273e-17 1.36056e-15 2.03823e-17 -3.64848e-18 -5.07663e-17 -3.06788e-17)
(3.44853e-17 9.78183e-16 1.8207e-17 1.73458e-18 3.52146e-17 -3.62199e-17)
(2.62222e-17 4.52974e-16 1.00472e-17 7.69926e-19 8.12735e-17 -2.69921e-17)
(1.44633e-17 -1.03725e-16 -3.53002e-18 -5.79349e-18 7.29914e-17 -8.66976e-18)
(1.11141e-17 -5.31093e-16 -1.85413e-17 -1.25571e-17 2.64948e-17 1.44296e-18)
(1.99007e-17 -6.62463e-16 -2.71507e-17 -1.27639e-17 -1.72722e-17 -7.13674e-18)
(2.64407e-17 -4.86331e-16 -2.36257e-17 -6.51044e-18 -2.76996e-17 -1.99303e-17)
(1.86854e-17 -2.29608e-16 -1.33811e-17 -1.38303e-18 -1.51549e-17 -1.73024e-17)
(7.17287e-18 -7.59534e-17 -5.42604e-18 1.11988e-21 -4.22678e-18 -7.17399e-18)
(1.54811e-18 -1.98612e-17 -1.79721e-18 4.27686e-20 -6.09553e-19 -1.59088e-18)
(1.72176e-19 -4.10546e-18 -4.95195e-19 5.21724e-21 -3.48056e-20 -1.77393e-19)
(6.43996e-21 -5.24348e-19 -9.22005e-20 3.89459e-23 1.58048e-22 -6.47891e-21)
(8.8522e-24 -3.86156e-20 -1.19357e-20 1.96331e-24 2.95357e-24 -1.08155e-23)
(2.44432e-25 -1.56259e-23 -1.56259e-23 -1.23758e-25 1.22206e-25 -1.20674e-25)
(5.94764e-13 -6.92567e-14 -6.36693e-16 1.27123e-16 4.53877e-14 -5.94891e-13)
(5.90626e-13 -1.06492e-13 -2.96094e-16 5.4127e-16 1.37478e-13 -5.91167e-13)
(5.51675e-13 -8.00364e-14 5.03274e-16 5.58758e-16 2.3484e-13 -5.52234e-13)
(5.06611e-13 -7.06476e-14 1.73444e-15 5.77191e-16 3.39543e-13 -5.07189e-13)
(4.64308e-13 -2.1636e-14 3.42241e-15 -1.52882e-16 4.48642e-13 -4.64156e-13)
(4.30663e-13 6.58718e-14 5.4962e-15 -2.01824e-15 5.55752e-13 -4.28645e-13)
(4.08751e-13 1.848e-13 7.79416e-15 -5.23317e-15 6.52677e-13 -4.03518e-13)
(3.99382e-13 3.26126e-13 1.00885e-14 -9.8335e-15 7.31159e-13 -3.89548e-13)
(4.01749e-13 4.78998e-13 1.21305e-14 -1.56387e-14 7.84519e-13 -3.86111e-13)
(4.13947e-13 6.33813e-13 1.37036e-14 -2.23306e-14 8.08798e-13 -3.91617e-13)
(4.33543e-13 7.82383e-13 1.46595e-14 -2.94941e-14 8.03106e-13 -4.04049e-13)
(4.57895e-13 9.21873e-13 1.4933e-14 -3.6817e-14 7.69232e-13 -4.21078e-13)
(4.85207e-13 1.05938e-12 1.45197e-14 -4.4368e-14 7.10138e-13 -4.40839e-13)
(5.15161e-13 1.21317e-12 1.34296e-14 -5.27538e-14 6.27692e-13 -4.62407e-13)
(5.49073e-13 1.40409e-12 1.16634e-14 -6.2794e-14 5.21767e-13 -4.86279e-13)
(5.89449e-13 1.65881e-12 9.21278e-15 -7.56164e-14 3.89874e-13 -5.13833e-13)
(6.38395e-13 1.97353e-12 6.09695e-15 -9.09236e-14 2.2895e-13 -5.47472e-13)
(6.94295e-13 2.31432e-12 2.53903e-15 -1.06861e-13 4.27807e-14 -5.87434e-13)
(7.57785e-13 2.72118e-12 -1.04389e-15 -1.24824e-13 -1.63041e-13 -6.32961e-13)
(8.27453e-13 3.17636e-12 -4.16074e-15 -1.43394e-13 -3.82633e-13 -6.84059e-13)
(8.94827e-13 3.62739e-12 -6.14228e-15 -1.59511e-13 -6.02432e-13 -7.35316e-13)
(9.51565e-13 4.02515e-12 -6.30401e-15 -1.7049e-13 -8.0451e-13 -7.81074e-13)
(9.84055e-13 4.29693e-12 -4.23241e-15 -1.73158e-13 -9.68403e-13 -8.10897e-13)
(9.8099e-13 4.38763e-12 -2.01046e-17 -1.6598e-13 -1.07631e-12 -8.15009e-13)
(9.31522e-13 4.21462e-12 5.32157e-15 -1.47305e-13 -1.11572e-12 -7.84217e-13)
(8.36231e-13 3.8754e-12 1.11134e-14 -1.23194e-13 -1.08356e-12 -7.13037e-13)
(7.33518e-13 4.12448e-12 2.29993e-14 -1.21338e-13 -1.00222e-12 -6.1218e-13)
(7.15708e-13 6.44617e-12 5.97915e-14 -1.84563e-13 -9.64185e-13 -5.31145e-13)
(7.79041e-13 9.06135e-12 1.11005e-13 -2.43058e-13 -1.00137e-12 -5.35983e-13)
(8.11044e-13 1.03349e-11 1.58576e-13 -2.47841e-13 -1.02852e-12 -5.63203e-13)
(8.32785e-13 1.13633e-11 2.17512e-13 -2.36563e-13 -1.00441e-12 -5.96222e-13)
(8.46657e-13 1.22018e-11 2.90876e-13 -2.12142e-13 -9.279e-13 -6.34515e-13)
(8.38218e-13 1.24577e-11 3.69861e-13 -1.69931e-13 -7.91828e-13 -6.68287e-13)
(7.8585e-13 1.16606e-11 4.31682e-13 -1.11816e-13 -5.95891e-13 -6.74035e-13)
(6.70247e-13 9.45894e-12 4.36899e-13 -5.0697e-14 -3.59266e-13 -6.1955e-13)
(4.90173e-13 5.81345e-12 3.34402e-13 -8.01159e-15 -1.27168e-13 -4.82162e-13)
(2.817e-13 1.21108e-12 8.60078e-14 -2.89334e-15 3.82539e-14 -2.78806e-13)
(1.19008e-13 -3.22395e-12 -2.83582e-13 -3.46638e-14 8.87109e-14 -8.43437e-14)
(6.89772e-14 -6.07073e-12 -6.48561e-13 -7.27558e-14 3.2602e-14 3.77861e-15)
(1.14703e-13 -6.24748e-12 -8.02093e-13 -7.44361e-14 -5.01632e-14 -4.02665e-14)
(1.48543e-13 -4.1845e-12 -6.41626e-13 -3.72137e-14 -6.89378e-14 -1.1133e-13)
(1.05176e-13 -1.82342e-12 -3.35694e-13 -6.54497e-15 -3.28942e-14 -9.86313e-14)
(4.22397e-14 -5.0209e-13 -1.13244e-13 7.89845e-16 -5.90549e-15 -4.30296e-14)
(1.01855e-14 -7.81472e-14 -2.23689e-14 3.06538e-16 3.56003e-16 -1.0492e-14)
(1.45352e-15 -1.83167e-15 -7.01323e-16 -3.69002e-17 3.15352e-16 -1.41662e-15)
(9.97568e-17 1.4602e-15 8.2465e-16 -1.88841e-17 4.0316e-17 -8.08728e-17)
(1.15756e-18 7.35234e-21 7.71187e-21 -5.79153e-19 5.78779e-19 -5.78405e-19)
(8.88339e-24 1.18778e-20 3.84282e-20 -1.08285e-23 2.97671e-24 1.94509e-24)
(4.1499e-10 -3.43339e-13 -1.50151e-12 -1.46743e-15 4.79372e-12 -4.14988e-10)
(4.14883e-10 -2.8954e-11 -1.4843e-12 1.38619e-13 1.48854e-11 -4.15022e-10)
(4.05414e-10 -6.45259e-11 -1.40311e-12 5.28274e-13 2.54148e-11 -4.05942e-10)
(3.94346e-10 -7.32191e-11 -1.26084e-12 8.23383e-13 3.59858e-11 -3.95169e-10)
(3.83656e-10 -7.025e-11 -1.06819e-12 9.91379e-13 4.65345e-11 -3.84648e-10)
(3.74939e-10 -5.69006e-11 -8.41587e-13 9.44524e-13 5.6489e-11 -3.75883e-10)
(3.69239e-10 -3.55803e-11 -6.07555e-13 6.39762e-13 6.51512e-11 -3.69879e-10)
(3.67043e-10 -9.25022e-12 -3.95328e-13 8.30921e-14 7.18428e-11 -3.67126e-10)
(3.68345e-10 1.88654e-11 -2.2967e-13 -6.7052e-13 7.60414e-11 -3.67674e-10)
(3.72741e-10 4.59243e-11 -1.26015e-13 -1.53577e-12 7.7464e-11 -3.71205e-10)
(3.79604e-10 6.96427e-11 -9.01097e-14 -2.41282e-12 7.60903e-11 -3.77191e-10)
(3.88193e-10 8.9165e-11 -1.20048e-13 -3.22994e-12 7.21121e-11 -3.84963e-10)
(3.97975e-10 1.05975e-10 -2.11102e-13 -3.99585e-12 6.57904e-11 -3.93979e-10)
(4.08817e-10 1.23878e-10 -3.59394e-13 -4.8192e-12 5.7265e-11 -4.03998e-10)
(4.21081e-10 1.47397e-10 -5.62121e-13 -5.85663e-12 4.6505e-11 -4.15225e-10)
(4.35453e-10 1.81489e-10 -8.14191e-13 -7.2938e-12 3.329e-11 -4.2816e-10)
(4.52689e-10 2.25747e-10 -1.10569e-12 -9.10345e-12 1.74506e-11 -4.43586e-10)
(4.72657e-10 2.75613e-10 -1.40568e-12 -1.10728e-11 -5.88618e-13 -4.61585e-10)
(4.94849e-10 3.33942e-10 -1.65269e-12 -1.32605e-11 -2.03574e-11 -4.81588e-10)
(5.19276e-10 3.9422e-10 -1.78563e-12 -1.5338e-11 -4.11633e-11 -5.03938e-10)
(5.43876e-10 4.47395e-10 -1.73002e-12 -1.68833e-11 -6.1662e-11 -5.26993e-10)
(5.66474e-10 4.84447e-10 -1.44003e-12 -1.75152e-11 -8.01963e-11 -5.48959e-10)
(5.8346e-10 4.94271e-10 -9.45213e-13 -1.68527e-11 -9.4883e-11 -5.66607e-10)
(5.91534e-10 4.70727e-10 -3.7385e-13 -1.48059e-11 -1.04199e-10 -5.76728e-10)
(5.8739e-10 4.04988e-10 -2.63831e-14 -1.12951e-11 -1.07076e-10 -5.76095e-10)
(5.69178e-10 3.17882e-10 1.11268e-14 -7.30456e-12 -1.03583e-10 -5.61873e-10)
(5.41696e-10 3.43731e-10 1.70845e-12 -7.09795e-12 -9.74185e-11 -5.34598e-10)
(5.22872e-10 7.1763e-10 1.06617e-11 -1.66059e-11 -9.98136e-11 -5.06266e-10)
(5.23098e-10 1.15667e-09 2.40423e-11 -2.61909e-11 -1.08938e-10 -4.96908e-10)
(5.16915e-10 1.3962e-09 3.6673e-11 -2.88472e-11 -1.14048e-10 -4.88067e-10)
(5.04468e-10 1.60533e-09 5.26725e-11 -2.97452e-11 -1.15071e-10 -4.74723e-10)
(4.85825e-10 1.79739e-09 7.33982e-11 -2.93698e-11 -1.12491e-10 -4.56455e-10)
(4.56587e-10 1.90135e-09 9.65872e-11 -2.65605e-11 -1.04418e-10 -4.30027e-10)
(4.10074e-10 1.83094e-09 1.15868e-10 -2.06281e-11 -8.87599e-11 -3.89446e-10)
(3.40633e-10 1.51648e-09 1.19666e-10 -1.21336e-11 -6.48424e-11 -3.28499e-10)
(2.48858e-10 9.39798e-10 9.2266e-11 -3.29999e-12 -3.52654e-11 -2.45558e-10)
(1.47234e-10 1.75081e-10 2.07957e-11 2.29837e-12 -7.17876e-12 -1.49532e-10)
(6.05221e-11 -5.90539e-10 -9.01384e-11 1.73878e-12 9.39527e-12 -6.22609e-11)
(1.33338e-11 -1.10846e-09 -2.05457e-10 -3.73636e-12 8.653e-12 -9.59744e-12)
(8.43165e-12 -1.1716e-09 -2.61704e-10 -7.17199e-12 -2.86891e-12 -1.25966e-12)
(1.95087e-11 -8.11451e-10 -2.17112e-10 -4.02809e-12 -7.93173e-12 -1.54806e-11)
(1.87553e-11 -3.66246e-10 -1.1795e-10 -4.81975e-13 -2.93989e-12 -1.82734e-11)
(9.15031e-12 -1.05438e-10 -4.17056e-11 -4.36718e-14 7.05712e-13 -9.10664e-12)
(2.62282e-12 -1.81568e-11 -9.14248e-12 -2.09883e-13 7.25355e-13 -2.41294e-12)
(4.25975e-13 -1.24936e-12 -8.46076e-13 -1.03106e-13 1.83454e-13 -3.22869e-13)
(2.33231e-14 2.49392e-16 2.95991e-16 -1.16662e-14 1.16616e-14 -1.16569e-14)
(9.98011e-17 -8.21773e-16 -1.4551e-15 -8.0949e-17 4.03106e-17 -1.88521e-17)
(6.44831e-21 9.23051e-20 5.24943e-19 -6.48755e-21 1.56898e-22 3.92426e-23)
(5.21095e-09 -1.25711e-10 1.96794e-11 1.66102e-13 7.19736e-11 -5.21111e-09)
(5.23867e-09 -8.305e-10 1.97243e-11 3.70896e-12 2.09095e-10 -5.24238e-09)
(5.16637e-09 -1.59244e-09 1.90867e-11 1.18408e-11 3.47115e-10 -5.17821e-09)
(5.07823e-09 -1.81238e-09 1.93609e-11 1.83898e-11 4.95189e-10 -5.09662e-09)
(4.97769e-09 -1.73855e-09 2.06219e-11 2.19966e-11 6.4478e-10 -4.99969e-09)
(4.86668e-09 -1.40151e-09 2.27027e-11 2.07814e-11 7.87534e-10 -4.88746e-09)
(4.74433e-09 -8.59955e-10 2.51182e-11 1.38997e-11 9.1331e-10 -4.75823e-09)
(4.60761e-09 -1.88777e-10 2.73109e-11 1.61315e-12 1.01232e-09 -4.60922e-09)
(4.45237e-09 5.29728e-10 2.88613e-11 -1.47824e-11 1.07683e-09 -4.43759e-09)
(4.27498e-09 1.22227e-09 2.9592e-11 -3.33847e-11 1.10231e-09 -4.24159e-09)
(4.07255e-09 1.83073e-09 2.95261e-11 -5.20614e-11 1.08771e-09 -4.02049e-09)
(3.84443e-09 2.33265e-09 2.87927e-11 -6.9303e-11 1.03517e-09 -3.77512e-09)
(3.5916e-09 2.76329e-09 2.75384e-11 -8.52684e-11 9.48861e-10 -3.50633e-09)
(3.31576e-09 3.21266e-09 2.59237e-11 -1.02083e-10 8.32663e-10 -3.21367e-09)
(3.01798e-09 3.78806e-09 2.41909e-11 -1.22812e-10 6.8882e-10 -2.89517e-09)
(2.69991e-09 4.60019e-09 2.27891e-11 -1.5088e-10 5.174e-10 -2.54903e-09)
(2.36015e-09 5.62781e-09 2.23035e-11 -1.85395e-10 3.16523e-10 -2.17476e-09)
(2.00226e-09 6.69034e-09 2.33702e-11 -2.19929e-10 8.76999e-11 -1.78234e-09)
(1.64817e-09 7.90348e-09 2.77128e-11 -2.57457e-10 -1.63606e-10 -1.39071e-09)
(1.30023e-09 9.18133e-09 3.71188e-11 -2.94112e-10 -4.31915e-10 -1.00611e-09)
(9.73784e-10 1.0241e-08 5.24818e-11 -3.19747e-10 -7.06388e-10 -6.54037e-10)
(6.87535e-10 1.08725e-08 7.35075e-11 -3.27113e-10 -9.72327e-10 -3.60422e-10)
(4.62328e-10 1.08407e-08 9.69433e-11 -3.0919e-10 -1.2106e-09 -1.53138e-10)
(3.16926e-10 1.00492e-08 1.16818e-10 -2.64639e-10 -1.40285e-09 -5.22874e-11)
(2.60557e-10 8.3456e-09 1.2223e-10 -1.91568e-10 -1.53475e-09 -6.89888e-11)
(3.08199e-10 6.10688e-09 1.083e-10 -1.04938e-10 -1.59194e-09 -2.03262e-10)
(5.26931e-10 6.05499e-09 1.35077e-10 -8.35032e-11 -1.57463e-09 -4.43428e-10)
(1.03899e-09 1.31728e-08 3.83767e-10 -2.4852e-10 -1.59314e-09 -7.90472e-10)
(1.72762e-09 2.18509e-08 7.75727e-10 -4.31729e-10 -1.70791e-09 -1.29589e-09)
(2.42973e-09 2.66492e-08 1.14284e-09 -5.00137e-10 -1.82407e-09 -1.9296e-09)
(3.22139e-09 3.10867e-08 1.61617e-09 -5.5387e-10 -1.92325e-09 -2.66752e-09)
(4.08126e-09 3.54121e-08 2.24187e-09 -6.02237e-10 -2.01125e-09 -3.47902e-09)
(4.87992e-09 3.78774e-08 2.93528e-09 -6.07344e-10 -2.04297e-09 -4.27258e-09)
(5.40078e-09 3.62894e-08 3.45928e-09 -5.22579e-10 -1.93543e-09 -4.8782e-09)
(5.38025e-09 2.86914e-08 3.37331e-09 -3.13565e-10 -1.59209e-09 -5.06668e-09)
(4.62367e-09 1.42366e-08 2.05488e-09 3.14832e-12 -9.63752e-10 -4.62682e-09)
(3.18811e-09 -5.61697e-09 -1.05308e-09 3.1184e-10 -1.45594e-10 -3.49995e-09)
(1.5141e-09 -2.62613e-08 -5.87365e-09 4.13741e-10 5.58655e-10 -1.92784e-09)
(2.87206e-10 -4.09655e-08 -1.1122e-08 1.95272e-10 7.67189e-10 -4.82478e-10)
(-5.58991e-11 -4.26664e-08 -1.39638e-08 -1.02526e-10 3.51503e-10 1.58425e-10)
(2.72368e-10 -3.0147e-08 -1.18339e-08 -9.94593e-11 -8.98097e-11 -1.72909e-10)
(4.90383e-10 -1.36675e-08 -6.46632e-09 -1.78176e-13 -3.99144e-11 -4.90205e-10)
(3.24722e-10 -3.65955e-09 -2.12865e-09 -1.8654e-11 7.64566e-11 -3.06068e-10)
(1.06304e-10 -4.52273e-10 -3.3506e-10 -2.658e-11 4.60332e-11 -7.97235e-11)
(1.41772e-11 6.77486e-15 8.54702e-14 -7.09033e-12 7.08859e-12 -7.08684e-12)
(4.26058e-13 8.4964e-13 1.25462e-12 -3.23038e-13 1.83432e-13 -1.03021e-13)
(1.45418e-15 7.12193e-16 1.85997e-15 -1.41749e-15 3.15161e-16 -3.66895e-17)
(1.72301e-19 4.95665e-19 4.10936e-18 -1.77522e-19 -3.48566e-20 5.221e-21)
(1.09995e-07 -2.14517e-09 1.03458e-09 2.82544e-12 2.65159e-10 -1.09998e-07)
(1.11488e-07 -5.14465e-09 1.05348e-09 1.96083e-11 8.31882e-10 -1.11507e-07)
(1.11905e-07 -6.82901e-09 1.05866e-09 4.14392e-11 1.42198e-09 -1.11947e-07)
(1.1232e-07 -7.76649e-09 1.06705e-09 6.31207e-11 2.00354e-09 -1.12383e-07)
(1.12495e-07 -7.19995e-09 1.07756e-09 7.05797e-11 2.58547e-09 -1.12566e-07)
(1.12227e-07 -5.21618e-09 1.08617e-09 5.55684e-11 3.14151e-09 -1.12282e-07)
(1.11373e-07 -2.06799e-09 1.08804e-09 1.43742e-11 3.63943e-09 -1.11387e-07)
(1.09869e-07 1.88803e-09 1.07935e-09 -5.20297e-11 4.04753e-09 -1.09817e-07)
(1.07717e-07 6.23692e-09 1.05857e-09 -1.38367e-10 4.33912e-09 -1.07578e-07)
(1.04978e-07 1.06067e-08 1.02679e-09 -2.37112e-10 4.49701e-09 -1.04741e-07)
(1.01744e-07 1.47137e-08 9.86927e-10 -3.40191e-10 4.51457e-09 -1.01404e-07)
(9.81294e-08 1.84779e-08 9.42568e-10 -4.42591e-10 4.3982e-09 -9.76869e-08)
(9.42356e-08 2.21518e-08 8.97005e-10 -5.46851e-10 4.16787e-09 -9.36888e-08)
(9.01364e-08 2.62878e-08 8.53176e-10 -6.63835e-10 3.85054e-09 -8.94725e-08)
(8.58607e-08 3.15287e-08 8.14334e-10 -8.08142e-10 3.47172e-09 -8.50525e-08)
(8.14173e-08 3.85156e-08 7.85679e-10 -9.95361e-10 3.05188e-09 -8.04219e-08)
(7.67812e-08 4.70883e-08 7.73929e-10 -1.22076e-09 2.58585e-09 -7.55605e-08)
(7.1963e-08 5.62718e-08 7.87333e-10 -1.45776e-09 2.05232e-09 -7.05053e-08)
(6.69297e-08 6.68606e-08 8.43933e-10 -1.72443e-09 1.4806e-09 -6.52053e-08)
(6.18486e-08 7.84107e-08 9.67641e-10 -2.00658e-09 8.81685e-10 -5.9842e-08)
(5.68572e-08 8.92807e-08 1.17616e-09 -2.25989e-09 2.48077e-10 -5.45973e-08)
(5.20319e-08 9.81652e-08 1.47858e-09 -2.44899e-09 -4.17281e-10 -4.95829e-08)
(4.75225e-08 1.03574e-07 1.86151e-09 -2.5348e-09 -1.09697e-09 -4.49877e-08)
(4.3393e-08 1.04901e-07 2.29071e-09 -2.50262e-09 -1.76125e-09 -4.08904e-08)
(3.95714e-08 1.01171e-07 2.6907e-09 -2.32641e-09 -2.417e-09 -3.7245e-08)
(3.5959e-08 9.3282e-08 2.99909e-09 -2.02699e-09 -3.02329e-09 -3.3932e-08)
(3.27175e-08 9.22849e-08 3.5334e-09 -1.88992e-09 -3.24155e-09 -3.08276e-08)
(2.96105e-08 1.22436e-07 5.50028e-09 -2.51605e-09 -2.68265e-09 -2.70945e-08)
(2.34616e-08 1.65374e-07 8.7468e-09 -3.42958e-09 -2.43556e-09 -2.00321e-08)
(1.82175e-08 1.93245e-07 1.21923e-08 -4.04119e-09 -2.82047e-09 -1.41763e-08)
(1.43161e-08 2.20876e-07 1.67466e-08 -4.77146e-09 -3.45427e-09 -9.5446e-09)
(1.18392e-08 2.46167e-07 2.25613e-08 -5.60896e-09 -4.33058e-09 -6.23025e-09)
(1.04146e-08 2.56106e-07 2.85281e-08 -6.17514e-09 -5.38748e-09 -4.2395e-09)
(9.18277e-09 2.35025e-07 3.19601e-08 -5.82531e-09 -6.33721e-09 -3.35747e-09)
(6.90778e-09 1.68624e-07 2.8056e-08 -3.7398e-09 -6.70585e-09 -3.16798e-09)
(2.50307e-09 4.95091e-08 1.00166e-08 6.54582e-10 -5.9944e-09 -3.15766e-09)
(-3.96419e-09 -1.14725e-07 -2.88194e-08 6.76746e-09 -3.90957e-09 -2.80326e-09)
(-1.02336e-08 -2.9396e-07 -8.96218e-08 1.19124e-08 -6.76769e-10 -1.67878e-09)
(-1.2188e-08 -4.40035e-07 -1.62158e-07 1.1834e-08 2.66915e-09 3.54014e-10)
(-7.17599e-09 -4.76719e-07 -2.11012e-07 5.52331e-09 3.11773e-09 1.65268e-09)
(2.34392e-10 -3.4991e-07 -1.85386e-07 7.97747e-10 2.8956e-10 -1.03214e-09)
(3.58086e-09 -1.50367e-07 -9.59118e-08 1.3378e-10 2.33772e-10 -3.71464e-09)
(2.83084e-09 -2.86234e-08 -2.24276e-08 -5.25965e-10 1.1128e-09 -2.30487e-09)
(9.68185e-10 -2.64152e-12 6.17931e-12 -4.84193e-10 4.84092e-10 -4.83992e-10)
(1.06317e-10 3.35427e-10 4.52768e-10 -7.97523e-11 4.60286e-11 -2.65651e-11)
(2.62349e-12 9.15092e-12 1.81736e-11 -2.41385e-12 7.25138e-13 -2.09642e-13)
(1.01893e-14 2.23916e-14 7.82267e-14 -1.04964e-14 3.54461e-16 3.07129e-16)
(1.54882e-18 1.79822e-18 1.98725e-17 -1.59159e-18 -6.10014e-19 4.27725e-20)
(1.47012e-09 -6.17262e-09 -4.02998e-12 6.46715e-12 5.83907e-10 -1.47658e-09)
(1.27955e-09 -1.23134e-08 -1.56836e-11 3.69623e-11 1.70486e-09 -1.31651e-09)
(9.72685e-10 -1.35947e-08 -2.18897e-11 6.31943e-11 2.75428e-09 -1.03588e-09)
(6.69522e-10 -1.41667e-08 -2.21072e-11 8.63092e-11 3.72977e-09 -7.55831e-10)
(4.69016e-10 -1.06192e-08 -6.82824e-12 7.31443e-11 4.59297e-09 -5.4216e-10)
(4.11465e-10 -3.16332e-09 2.04107e-11 7.96251e-12 5.30947e-09 -4.19428e-10)
(5.03602e-10 7.50324e-09 5.06492e-11 -1.14651e-10 5.8451e-09 -3.88951e-10)
(7.42358e-10 2.03908e-08 7.54087e-11 -2.90129e-10 6.17045e-09 -4.52229e-10)
(1.1317e-09 3.43796e-08 9.13092e-11 -5.05722e-10 6.26608e-09 -6.25977e-10)
(1.6863e-09 4.84593e-08 1.01423e-10 -7.44549e-10 6.12543e-09 -9.41754e-10)
(2.42482e-09 6.18342e-08 1.13094e-10 -9.88748e-10 5.75619e-09 -1.43607e-09)
(3.36147e-09 7.41901e-08 1.3435e-10 -1.2257e-09 5.17875e-09 -2.13577e-09)
(4.50778e-09 8.60127e-08 1.71567e-10 -1.45591e-09 4.41852e-09 -3.05187e-09)
(5.87689e-09 9.85781e-08 2.30651e-10 -1.69522e-09 3.4949e-09 -4.18167e-09)
(7.48775e-09 1.13432e-07 3.20959e-10 -1.9665e-09 2.41841e-09 -5.52126e-09)
(9.3629e-09 1.32186e-07 4.6109e-10 -2.29535e-09 1.18774e-09 -7.06755e-09)
(1.15052e-08 1.54917e-07 6.80579e-10 -2.67993e-09 -1.9245e-10 -8.82527e-09)
(1.3889e-08 1.8147e-07 1.02609e-09 -3.11295e-09 -1.7082e-09 -1.0776e-08)
(1.65638e-08 2.11584e-07 1.562e-09 -3.58538e-09 -3.35412e-09 -1.29784e-08)
(1.92734e-08 2.41742e-07 2.35059e-09 -4.02934e-09 -5.04816e-09 -1.52441e-08)
(2.17283e-08 2.70007e-07 3.46471e-09 -4.40622e-09 -6.69789e-09 -1.7322e-08)
(2.3644e-08 2.93137e-07 4.93466e-09 -4.65515e-09 -8.20559e-09 -1.89889e-08)
(2.45955e-08 3.07453e-07 6.70847e-09 -4.71134e-09 -9.44242e-09 -1.98842e-08)
(2.4378e-08 3.13381e-07 8.71843e-09 -4.58767e-09 -1.0367e-08 -1.97903e-08)
(2.3075e-08 3.11255e-07 1.0842e-08 -4.29213e-09 -1.102e-08 -1.87829e-08)
(2.11152e-08 3.05088e-07 1.30681e-08 -3.88091e-09 -1.15429e-08 -1.72342e-08)
(1.95632e-08 3.40386e-07 1.76596e-08 -4.05183e-09 -1.22861e-08 -1.55114e-08)
(2.02345e-08 5.5715e-07 3.46917e-08 -7.05071e-09 -1.35917e-08 -1.31838e-08)
(1.98774e-08 7.7036e-07 5.73394e-08 -1.03632e-08 -1.35838e-08 -9.5142e-09)
(1.79165e-08 8.34114e-07 7.4304e-08 -1.18207e-08 -1.24894e-08 -6.09579e-09)
(1.72946e-08 8.81203e-07 9.41852e-08 -1.37529e-08 -1.1332e-08 -3.5417e-09)
(1.82296e-08 8.98646e-07 1.1558e-07 -1.59376e-08 -9.84811e-09 -2.29205e-09)
(2.03865e-08 8.56053e-07 1.32896e-07 -1.74447e-08 -7.97213e-09 -2.94183e-09)
(2.27053e-08 7.27738e-07 1.3669e-07 -1.6829e-08 -5.97435e-09 -5.87626e-09)
(2.31455e-08 5.01587e-07 1.14089e-07 -1.23894e-08 -4.41512e-09 -1.07561e-08)
(1.90452e-08 1.8317e-07 5.03652e-08 -2.71739e-09 -3.83337e-09 -1.63278e-08)
(8.47956e-09 -2.05174e-07 -6.83332e-08 1.25099e-08 -4.18892e-09 -2.09894e-08)
(-7.93729e-09 -6.32243e-07 -2.52885e-07 3.16524e-08 -4.54501e-09 -2.37151e-08)
(-2.58773e-08 -1.09747e-06 -5.25211e-07 4.79744e-08 -2.53981e-09 -2.20971e-08)
(-2.63022e-08 -1.41663e-06 -8.07746e-07 4.25867e-08 1.60098e-09 -1.62845e-08)
(-4.475e-09 -1.11742e-06 -7.58484e-07 1.80591e-08 1.44714e-09 -1.35841e-08)
(1.05473e-08 -4.02608e-07 -3.27916e-07 1.52495e-09 3.98531e-09 -1.20723e-08)
(8.53983e-09 -1.23842e-11 5.98035e-11 -4.27104e-09 4.26992e-09 -4.26879e-09)
(2.83135e-09 2.24375e-08 2.8636e-08 -2.30574e-09 1.11258e-09 -5.25607e-10)
(3.24799e-10 2.12938e-09 3.6608e-09 -3.06164e-10 7.64268e-11 -1.86351e-11)
(9.15287e-12 4.17197e-11 1.05474e-10 -9.10942e-12 7.04726e-13 -4.3452e-14)
(4.22533e-14 1.13282e-13 5.02257e-13 -4.30434e-14 -5.91217e-15 7.90096e-16)
(7.17532e-18 5.42761e-18 7.59756e-17 -7.17635e-18 -4.2289e-18 1.03182e-21)
(6.2894e-08 -5.98442e-09 -3.3193e-10 3.93492e-12 7.81764e-10 -6.28979e-08)
(6.40305e-08 -1.53504e-08 -3.63237e-10 2.89375e-11 2.24549e-09 -6.40594e-08)
(6.35193e-08 -2.03828e-08 -3.83025e-10 5.98325e-11 3.49206e-09 -6.35791e-08)
(6.30516e-08 -2.03194e-08 -3.84839e-10 7.56157e-11 4.47245e-09 -6.31273e-08)
(6.28247e-08 -1.36558e-08 -3.58452e-10 5.10147e-11 5.11977e-09 -6.28757e-08)
(6.30136e-08 -6.91826e-10 -3.12796e-10 -2.87354e-11 5.41272e-09 -6.29849e-08)
(6.376e-08 1.75583e-08 -2.66819e-10 -1.67399e-10 5.35727e-09 -6.35926e-08)
(6.5178e-08 3.96444e-08 -2.37373e-10 -3.58352e-10 4.98005e-09 -6.48196e-08)
(6.73499e-08 6.38896e-08 -2.29896e-10 -5.86358e-10 4.32395e-09 -6.67636e-08)
(7.03264e-08 8.87238e-08 -2.35778e-10 -8.31552e-10 3.4401e-09 -6.94949e-08)
(7.41324e-08 1.12814e-07 -2.37023e-10 -1.07252e-09 2.3845e-09 -7.30599e-08)
(7.87612e-08 1.35527e-07 -2.13796e-10 -1.29309e-09 1.20627e-09 -7.74681e-08)
(8.42196e-08 1.57531e-07 -1.49716e-10 -1.49058e-09 -7.25257e-11 -8.2729e-08)
(9.05667e-08 1.80881e-07 -2.9022e-11 -1.67739e-09 -1.4691e-09 -8.88893e-08)
(9.79536e-08 2.08271e-07 1.7308e-10 -1.87215e-09 -3.02656e-09 -9.60814e-08)
(1.06644e-07 2.4277e-07 5.05577e-10 -2.09491e-09 -4.8123e-09 -1.04549e-07)
(1.17032e-07 2.84983e-07 1.04576e-09 -2.33654e-09 -6.83706e-09 -1.14695e-07)
(1.29362e-07 3.35069e-07 1.91608e-09 -2.57711e-09 -9.08071e-09 -1.26785e-07)
(1.43776e-07 3.9358e-07 3.29742e-09 -2.80428e-09 -1.15266e-08 -1.40972e-07)
(1.60913e-07 4.55815e-07 5.37424e-09 -2.95444e-09 -1.39897e-08 -1.57958e-07)
(1.80834e-07 5.20027e-07 8.39937e-09 -2.98294e-09 -1.63064e-08 -1.77851e-07)
(2.03844e-07 5.82654e-07 1.25909e-08 -2.83031e-09 -1.82163e-08 -2.01014e-07)
(2.29651e-07 6.39939e-07 1.80935e-08 -2.44358e-09 -1.93638e-08 -2.27207e-07)
(2.58271e-07 6.98378e-07 2.52994e-08 -1.84755e-09 -1.97583e-08 -2.56423e-07)
(2.90508e-07 7.67997e-07 3.49575e-08 -1.06507e-09 -1.95952e-08 -2.89443e-07)
(3.28552e-07 8.62675e-07 4.84788e-08 -1.032e-10 -1.92794e-08 -3.28449e-07)
(3.74948e-07 1.00153e-06 6.8488e-08 1.04963e-09 -1.94974e-08 -3.75998e-07)
(4.12433e-07 1.1956e-06 9.88845e-08 2.53391e-09 -2.10336e-08 -4.14966e-07)
(3.66824e-07 1.34659e-06 1.3536e-07 3.93789e-09 -2.11458e-08 -3.70762e-07)
(3.2066e-07 1.50241e-06 1.82363e-07 5.63355e-09 -2.09567e-08 -3.26294e-07)
(2.7957e-07 1.68107e-06 2.45429e-07 7.50849e-09 -2.08914e-08 -2.87079e-07)
(2.44345e-07 1.876e-06 3.28767e-07 9.56763e-09 -2.05684e-08 -2.53913e-07)
(2.17402e-07 2.07725e-06 4.36476e-07 1.17055e-08 -1.94882e-08 -2.29107e-07)
(2.01874e-07 2.27499e-06 5.72476e-07 1.36177e-08 -1.72625e-08 -2.15492e-07)
(2.0015e-07 2.44646e-06 7.35943e-07 1.45724e-08 -1.33176e-08 -2.14722e-07)
(2.11922e-07 2.53019e-06 9.07486e-07 1.32566e-08 -6.375e-09 -2.25179e-07)
(2.30741e-07 2.41097e-06 1.02759e-06 8.15577e-09 5.5534e-09 -2.38897e-07)
(2.4004e-07 1.96564e-06 9.92023e-07 -5.57764e-10 2.25075e-08 -2.39483e-07)
(2.23191e-07 1.00618e-06 5.98806e-07 -1.06551e-08 4.96249e-08 -2.12536e-07)
(1.43123e-07 -1.60016e-07 -1.14944e-07 -1.9074e-08 6.0448e-08 -1.24049e-07)
(1.08674e-08 -7.62693e-07 -6.37428e-07 4.94731e-09 1.01494e-08 -1.58147e-08)
(4.9536e-09 1.11188e-10 1.26648e-10 -2.47807e-09 2.4768e-09 -2.47553e-09)
(1.05522e-08 3.28007e-07 4.02719e-07 -1.20779e-08 3.9831e-09 1.52565e-09)
(3.58278e-09 9.59277e-08 1.50392e-07 -3.71637e-09 2.32889e-10 1.33592e-10)
(4.90581e-10 6.46739e-09 1.36698e-08 -4.9038e-10 -4.00021e-11 -2.01103e-13)
(1.87616e-11 1.1797e-10 3.6631e-10 -1.82789e-11 -2.9426e-12 -4.82719e-13)
(1.05209e-13 3.35747e-13 1.82371e-12 -9.86601e-14 -3.29126e-14 -6.54925e-15)
(1.86911e-17 1.33832e-17 2.29644e-16 -1.73074e-17 -1.5161e-17 -1.38366e-18)
(3.341e-08 -7.85073e-09 1.20774e-10 3.03006e-12 3.75356e-10 -3.3413e-08)
(3.2973e-08 -2.55299e-08 6.66908e-11 2.86984e-11 1.03768e-09 -3.30017e-08)
(3.2796e-08 -3.89273e-08 -6.56128e-12 6.79699e-11 1.61852e-09 -3.2864e-08)
(3.24706e-08 -4.07159e-08 -3.74874e-11 8.96621e-11 2.18326e-09 -3.25602e-08)
(3.19139e-08 -3.18788e-08 -7.41284e-12 7.66075e-11 2.68107e-09 -3.19905e-08)
(3.10388e-08 -1.30654e-08 6.94704e-11 2.12504e-11 3.08573e-09 -3.106e-08)
(2.97676e-08 1.39869e-08 1.57968e-10 -7.16531e-11 3.37356e-09 -2.96959e-08)
(2.80362e-08 4.69045e-08 2.26662e-10 -1.87906e-10 3.52633e-09 -2.78483e-08)
(2.58157e-08 8.29696e-08 2.66319e-10 -3.07411e-10 3.53273e-09 -2.55083e-08)
(2.31272e-08 1.1967e-07 2.95014e-10 -4.08955e-10 3.3934e-09 -2.27183e-08)
(2.00433e-08 1.54899e-07 3.48964e-10 -4.73317e-10 3.12153e-09 -1.957e-08)
(1.66936e-08 1.87693e-07 4.68274e-10 -4.87561e-10 2.74907e-09 -1.6206e-08)
(1.32338e-08 2.19152e-07 6.88527e-10 -4.47576e-10 2.32869e-09 -1.27862e-08)
(9.81549e-09 2.52479e-07 1.04818e-09 -3.53912e-10 1.92253e-09 -9.46158e-09)
(6.57037e-09 2.91924e-07 1.60935e-09 -2.02802e-10 1.58301e-09 -6.36757e-09)
(3.62392e-09 3.42396e-07 2.48948e-09 1.84541e-11 1.34364e-09 -3.64237e-09)
(1.12549e-09 4.04406e-07 3.86e-09 3.41429e-10 1.19214e-09 -1.46692e-09)
(-6.37764e-10 4.7631e-07 5.95395e-09 8.05037e-10 1.11747e-09 -1.67272e-10)
(-1.29401e-09 5.61331e-07 9.16013e-09 1.43804e-09 1.12992e-09 -1.44027e-10)
(-3.46537e-10 6.54522e-07 1.38927e-08 2.2784e-09 1.20605e-09 -1.93186e-09)
(2.83131e-09 7.52104e-07 2.06395e-08 3.36366e-09 1.41422e-09 -6.19496e-09)
(9.04559e-09 8.49328e-07 2.98586e-08 4.72678e-09 1.89254e-09 -1.37724e-08)
(1.90329e-08 9.4128e-07 4.18825e-08 6.38542e-09 2.94284e-09 -2.54183e-08)
(3.35215e-08 1.04023e-06 5.7745e-08 8.4044e-09 4.77676e-09 -4.19259e-08)
(5.3447e-08 1.16574e-06 7.95475e-08 1.09359e-08 7.44661e-09 -6.43829e-08)
(8.01934e-08 1.34103e-06 1.10969e-07 1.4198e-08 1.06757e-08 -9.43914e-08)
(1.16042e-07 1.5497e-06 1.53745e-07 1.78159e-08 1.43141e-08 -1.33858e-07)
(1.63892e-07 1.63142e-06 1.92301e-07 1.94807e-08 2.08652e-08 -1.83372e-07)
(2.16243e-07 1.80292e-06 2.51841e-07 2.29287e-08 2.80715e-08 -2.39171e-07)
(2.79414e-07 2.28647e-06 3.78669e-07 3.37228e-08 3.24148e-08 -3.13137e-07)
(3.61489e-07 2.92288e-06 5.73333e-07 5.01933e-08 3.89333e-08 -4.11682e-07)
(4.65068e-07 3.70428e-06 8.5975e-07 7.29596e-08 4.9243e-08 -5.38028e-07)
(5.90558e-07 4.61672e-06 1.26633e-06 1.01439e-07 6.53439e-08 -6.91997e-07)
(7.34443e-07 5.59816e-06 1.81166e-06 1.3165e-07 8.98223e-08 -8.66092e-07)
(8.86435e-07 6.50672e-06 2.47912e-06 1.54338e-07 1.25583e-07 -1.04077e-06)
(1.02864e-06 7.10694e-06 3.1806e-06 1.55449e-07 1.75666e-07 -1.18409e-06)
(1.13983e-06 7.11389e-06 3.73133e-06 1.20357e-07 2.42606e-07 -1.26019e-06)
(1.19978e-06 6.34717e-06 3.89519e-06 3.79355e-08 3.20607e-07 -1.23772e-06)
(1.24276e-06 4.44768e-06 3.18426e-06 -1.14722e-07 4.34933e-07 -1.12803e-06)
(1.43417e-06 1.74903e-06 1.43689e-06 -4.22688e-07 6.60573e-07 -1.01148e-06)
(6.08668e-07 7.65794e-09 -7.17571e-09 -3.04307e-07 3.04334e-07 -3.04361e-07)
(1.08684e-08 6.37738e-07 7.63065e-07 -1.58058e-08 1.01474e-08 4.9374e-09)
(-4.4649e-09 7.586e-07 1.11759e-06 -1.35906e-08 1.44286e-09 1.80555e-08)
(2.37572e-10 1.85406e-07 3.49947e-07 -1.03397e-09 2.88033e-10 7.964e-10)
(2.72659e-10 1.18352e-08 3.01503e-08 -1.7308e-10 -8.99573e-11 -9.95786e-11)
(1.95186e-11 2.17138e-10 8.11547e-10 -1.54873e-11 -7.9364e-12 -4.03131e-12)