/*--------------------------------*- C++ -*----------------------------------*\
| =========                 |                                                 |
| \\      /  F ield         | OpenFOAM: The Open Source CFD Toolbox           |
|  \\    /   O peration     | Version:  2412                                  |
|   \\  /    A nd           | Website:  www.openfoam.com                      |
|    \\/     M anipulation  |                                                 |
\*---------------------------------------------------------------------------*/
FoamFile
{
    version     2.0;
    format      ascii;
    arch        "LSB;label=32;scalar=64";
    class       volSymmTensorField;
    location    "2130";
    object      Tij9;
}
// * * * * * * * * * * * * * * * * * * * * * * * * * * * * * * * * * * * * * //

dimensions      [0 0 0 0 0 0 0];

internalField   nonuniform List<symmTensor> 
2304
(
(-6.60494e-11 2.1109e-13 -5.56999e-13 1.32101e-10 7.44389e-15 -6.60512e-11)
(-6.57507e-11 6.26888e-13 -5.58386e-13 1.31505e-10 2.1095e-14 -6.57543e-11)
(-6.52305e-11 1.03243e-12 -5.55673e-13 1.30468e-10 3.14986e-14 -6.52375e-11)
(-6.45872e-11 1.4307e-12 -5.52091e-13 1.29187e-10 3.76991e-14 -6.45993e-11)
(-6.39158e-11 1.82206e-12 -5.47763e-13 1.2785e-10 3.97398e-14 -6.39347e-11)
(-6.32904e-11 2.20442e-12 -5.42723e-13 1.26608e-10 3.84056e-14 -6.33175e-11)
(-6.27569e-11 2.57409e-12 -5.36969e-13 1.2555e-10 3.4893e-14 -6.27936e-11)
(-6.23325e-11 2.92639e-12 -5.30468e-13 1.24712e-10 3.05274e-14 -6.23798e-11)
(-6.20106e-11 3.25615e-12 -5.23142e-13 1.2408e-10 2.65582e-14 -6.2069e-11)
(-6.17667e-11 3.55824e-12 -5.14936e-13 1.23603e-10 2.39836e-14 -6.18364e-11)
(-6.15669e-11 3.82807e-12 -5.05784e-13 1.23215e-10 2.34296e-14 -6.16476e-11)
(-6.13755e-11 4.06206e-12 -4.95689e-13 1.22842e-10 2.50491e-14 -6.14663e-11)
(-6.11624e-11 4.25803e-12 -4.8463e-13 1.22425e-10 2.85478e-14 -6.12624e-11)
(-6.09079e-11 4.41506e-12 -4.72563e-13 1.21924e-10 3.34173e-14 -6.10157e-11)
(-6.06014e-11 4.53272e-12 -4.59282e-13 1.21317e-10 3.92882e-14 -6.07154e-11)
(-6.02361e-11 4.61043e-12 -4.44548e-13 1.20591e-10 4.62413e-14 -6.03547e-11)
(-5.98028e-11 4.64638e-12 -4.27872e-13 1.19727e-10 5.50334e-14 -5.9924e-11)
(-5.92814e-11 4.63744e-12 -4.09165e-13 1.18685e-10 6.68622e-14 -5.94031e-11)
(-5.86429e-11 4.58154e-12 -3.8856e-13 1.17406e-10 8.30888e-14 -5.87629e-11)
(-5.78482e-11 4.47582e-12 -3.65381e-13 1.15812e-10 1.05356e-13 -5.79642e-11)
(-5.68475e-11 4.31791e-12 -3.40052e-13 1.13805e-10 1.35012e-13 -5.69573e-11)
(-5.55914e-11 4.10804e-12 -3.12732e-13 1.11284e-10 1.7276e-13 -5.56928e-11)
(-5.40336e-11 3.84951e-12 -2.84444e-13 1.08159e-10 2.18407e-13 -5.41251e-11)
(-5.21434e-11 3.55013e-12 -2.56183e-13 1.04367e-10 2.70546e-13 -5.22238e-11)
(-4.99105e-11 3.22136e-12 -2.29333e-13 9.98899e-11 3.26696e-13 -4.99794e-11)
(-4.73506e-11 2.87825e-12 -2.05373e-13 9.47587e-11 3.8286e-13 -4.74081e-11)
(-4.4513e-11 2.53748e-12 -1.84196e-13 8.9073e-11 4.33989e-13 -4.456e-11)
(-4.14777e-11 2.21151e-12 -1.60412e-13 8.2993e-11 4.78189e-13 -4.15153e-11)
(-3.83091e-11 1.88677e-12 -1.21728e-13 7.6647e-11 5.22553e-13 -3.83379e-11)
(-3.49873e-11 1.55185e-12 -8.18303e-14 6.99945e-11 5.71644e-13 -3.50072e-11)
(-3.15145e-11 1.21641e-12 -4.35231e-14 6.30405e-11 6.22135e-13 -3.1526e-11)
(-2.79142e-11 8.90167e-13 -8.05111e-15 5.58324e-11 6.7083e-13 -2.79183e-11)
(-2.42236e-11 5.84594e-13 2.24177e-14 4.84449e-11 7.14103e-13 -2.42213e-11)
(-2.04979e-11 3.13578e-13 4.47044e-14 4.09885e-11 7.46337e-13 -2.04905e-11)
(-1.68181e-11 9.25545e-14 5.563e-14 3.36251e-11 7.59674e-13 -1.68069e-11)
(-1.3294e-11 -6.48807e-14 5.35048e-14 2.65743e-11 7.45465e-13 -1.32802e-11)
(-1.00561e-11 -1.52046e-13 3.95588e-14 2.00969e-11 6.97362e-13 -1.00408e-11)
(-7.23369e-12 -1.7386e-13 1.86533e-14 1.44513e-11 6.15235e-13 -7.21765e-12)
(-4.92291e-12 -1.4794e-13 -1.67468e-15 9.82984e-12 5.07635e-13 -4.90693e-12)
(-3.15821e-12 -9.94638e-14 -1.4528e-14 6.3014e-12 3.90239e-13 -3.14318e-12)
(-1.90368e-12 -5.25787e-14 -1.66116e-14 3.79412e-12 2.80033e-13 -1.89045e-12)
(-1.0705e-12 -2.13662e-14 -1.12433e-14 2.13011e-12 1.88333e-13 -1.0596e-12)
(-5.52094e-13 -6.4532e-15 -5.12756e-15 1.09573e-12 1.18323e-13 -5.43639e-13)
(-2.52663e-13 -1.34229e-15 -1.61956e-15 4.99156e-13 6.81389e-14 -2.46493e-13)
(-9.66657e-14 -1.52326e-16 -3.31383e-16 1.89171e-13 3.44859e-14 -9.25055e-14)
(-2.75142e-14 -1.18507e-18 -3.30496e-17 5.25527e-14 1.4079e-14 -2.50385e-14)
(-4.46178e-15 6.38099e-19 -3.80174e-19 7.75628e-15 3.77648e-15 -3.2945e-15)
(-2.36223e-16 1.30718e-20 -1.32504e-20 1.18111e-16 3.54334e-16 1.18112e-16)
(-7.71791e-08 2.29657e-10 5.24892e-10 1.5436e-07 2.41513e-11 -7.71805e-08)
(-7.68327e-08 6.80824e-10 5.22288e-10 1.53669e-07 6.80296e-11 -7.68359e-08)
(-7.62292e-08 1.1174e-09 5.03183e-10 1.52465e-07 1.00426e-10 -7.62357e-08)
(-7.54828e-08 1.54138e-09 4.80293e-10 1.50977e-07 1.17877e-10 -7.54943e-08)
(-7.47037e-08 1.95308e-09 4.57483e-10 1.49425e-07 1.20528e-10 -7.47215e-08)
(-7.39778e-08 2.3509e-09 4.37758e-10 1.47981e-07 1.11233e-10 -7.40035e-08)
(-7.33584e-08 2.73187e-09 4.23042e-10 1.46751e-07 9.434e-11 -7.3393e-08)
(-7.28658e-08 3.09211e-09 4.14186e-10 1.45776e-07 7.46762e-11 -7.29102e-08)
(-7.24921e-08 3.42715e-09 4.1114e-10 1.45039e-07 5.68016e-11 -7.25469e-08)
(-7.22091e-08 3.7324e-09 4.13115e-10 1.44483e-07 4.437e-11 -7.22742e-08)
(-7.19773e-08 4.0036e-09 4.18924e-10 1.4403e-07 3.96909e-11 -7.20523e-08)
(-7.17549e-08 4.23729e-09 4.27142e-10 1.43594e-07 4.33573e-11 -7.18391e-08)
(-7.1507e-08 4.4313e-09 4.36596e-10 1.43106e-07 5.43337e-11 -7.15993e-08)
(-7.12102e-08 4.58465e-09 4.46638e-10 1.4252e-07 7.07939e-11 -7.13094e-08)
(-7.08522e-08 4.69698e-09 4.57361e-10 1.41809e-07 9.14078e-11 -7.09568e-08)
(-7.04253e-08 4.76798e-09 4.69274e-10 1.40959e-07 1.1646e-10 -7.05338e-08)
(-6.99192e-08 4.79645e-09 4.83292e-10 1.39949e-07 1.48694e-10 -7.00297e-08)
(-6.93105e-08 4.78017e-09 4.99236e-10 1.38732e-07 1.92402e-10 -6.94213e-08)
(-6.85568e-08 4.71683e-09 5.16409e-10 1.37223e-07 2.52449e-10 -6.86659e-08)
(-6.76209e-08 4.60477e-09 5.34452e-10 1.35347e-07 3.34825e-10 -6.77261e-08)
(-6.64458e-08 4.44254e-09 5.50848e-10 1.32991e-07 4.44339e-10 -6.65453e-08)
(-6.49748e-08 4.23088e-09 5.63247e-10 1.30041e-07 5.83504e-10 -6.50664e-08)
(-6.31543e-08 3.97311e-09 5.67877e-10 1.26391e-07 7.51538e-10 -6.32363e-08)
(-6.09493e-08 3.67633e-09 5.61547e-10 1.21969e-07 9.43293e-10 -6.102e-08)
(-5.83476e-08 3.35035e-09 5.41376e-10 1.16753e-07 1.14978e-09 -5.84058e-08)
(-5.53658e-08 3.00725e-09 5.05433e-10 1.10776e-07 1.35663e-09 -5.54106e-08)
(-5.20579e-08 2.66055e-09 4.56667e-10 1.04147e-07 1.54544e-09 -5.20893e-08)
(-4.85156e-08 2.32226e-09 4.12164e-10 9.70493e-08 1.70902e-09 -4.85337e-08)
(-4.48174e-08 1.98739e-09 3.97456e-10 8.96393e-08 1.87348e-09 -4.48219e-08)
(-4.09378e-08 1.65077e-09 3.88128e-10 8.18647e-08 2.05467e-09 -4.09269e-08)
(-3.68822e-08 1.32037e-09 3.7746e-10 7.3736e-08 2.24027e-09 -3.68539e-08)
(-3.26805e-08 1.00404e-09 3.64623e-10 6.53129e-08 2.41885e-09 -3.26324e-08)
(-2.83771e-08 7.10716e-10 3.46588e-10 5.66835e-08 2.57763e-09 -2.83064e-08)
(-2.40359e-08 4.50772e-10 3.18214e-10 4.79751e-08 2.69669e-09 -2.39392e-08)
(-1.97489e-08 2.35297e-10 2.74512e-10 3.93724e-08 2.74801e-09 -1.96234e-08)
(-1.56403e-08 7.37601e-11 2.13716e-10 3.11257e-08 2.70043e-09 -1.54854e-08)
(-1.18576e-08 -2.92766e-11 1.40126e-10 2.35349e-08 2.53041e-09 -1.16773e-08)
(-8.54899e-09 -7.70771e-11 6.49199e-11 1.69019e-08 2.23599e-09 -8.35295e-09)
(-5.82812e-09 -8.16684e-11 3.12687e-12 1.14594e-08 1.84647e-09 -5.63131e-09)
(-3.73768e-09 -6.0722e-11 -3.31292e-11 7.29388e-09 1.41677e-09 -3.5562e-09)
(-2.2527e-09 -3.33876e-11 -4.02056e-11 4.3503e-09 1.01345e-09 -2.0976e-09)
(-1.27087e-09 -1.3308e-11 -2.81703e-11 2.41667e-09 6.79868e-10 -1.1458e-09)
(-6.62529e-10 -3.57431e-12 -1.34681e-11 1.22867e-09 4.27186e-10 -5.66141e-10)
(-3.11144e-10 -4.52985e-13 -4.59319e-12 5.51458e-10 2.47225e-10 -2.40314e-10)
(-1.25813e-10 9.11074e-14 -1.08589e-12 2.03088e-10 1.26354e-10 -7.7275e-11)
(-3.84375e-11 5.23916e-14 -1.45175e-13 4.89944e-11 4.93729e-11 -1.05569e-11)
(-3.99983e-12 3.72911e-15 -3.72478e-15 1.99991e-12 5.99975e-12 1.99992e-12)
(-4.46177e-15 3.80535e-19 -6.39106e-19 -3.2945e-15 3.77647e-15 7.75627e-15)
(-5.2532e-06 1.44108e-08 1.14374e-07 1.05072e-05 2.80264e-09 -5.25404e-06)
(-5.23236e-06 4.25714e-08 1.14174e-07 1.04657e-05 7.89268e-09 -5.2333e-06)
(-5.19602e-06 6.95601e-08 1.12562e-07 1.03932e-05 1.16408e-08 -5.19714e-06)
(-5.151e-06 9.54927e-08 1.10618e-07 1.03034e-05 1.36379e-08 -5.15237e-06)
(-5.10386e-06 1.20338e-07 1.0867e-07 1.02094e-05 1.38956e-08 -5.10557e-06)
(-5.05974e-06 1.44031e-07 1.06981e-07 1.01216e-05 1.2746e-08 -5.06185e-06)
(-5.02185e-06 1.66449e-07 1.0573e-07 1.00463e-05 1.07003e-08 -5.02442e-06)
(-4.99139e-06 1.87424e-07 1.05009e-07 9.98585e-06 8.32972e-09 -4.99446e-06)
(-4.96789e-06 2.06754e-07 1.04826e-07 9.93938e-06 6.1765e-09 -4.97149e-06)
(-4.94963e-06 2.24222e-07 1.05125e-07 9.90338e-06 4.67594e-09 -4.95376e-06)
(-4.93421e-06 2.39616e-07 1.05806e-07 9.87306e-06 4.10398e-09 -4.93884e-06)
(-4.91909e-06 2.52765e-07 1.06744e-07 9.84329e-06 4.53264e-09 -4.92419e-06)
(-4.90213e-06 2.63551e-07 1.07834e-07 9.80977e-06 5.84101e-09 -4.90764e-06)
(-4.88185e-06 2.71925e-07 1.09015e-07 9.76956e-06 7.8145e-09 -4.8877e-06)
(-4.85742e-06 2.77877e-07 1.10297e-07 9.72096e-06 1.02968e-08 -4.86354e-06)
(-4.82826e-06 2.81416e-07 1.11727e-07 9.66283e-06 1.33222e-08 -4.83457e-06)
(-4.79361e-06 2.82523e-07 1.13387e-07 9.59364e-06 1.72155e-08 -4.80003e-06)
(-4.75203e-06 2.81157e-07 1.15256e-07 9.51049e-06 2.24798e-08 -4.75847e-06)
(-4.70333e-06 2.77375e-07 1.17244e-07 9.41303e-06 2.97097e-08 -4.70969e-06)
(-4.64312e-06 2.71004e-07 1.19321e-07 9.29242e-06 3.96158e-08 -4.6493e-06)
(-4.56776e-06 2.62032e-07 1.21223e-07 9.14139e-06 5.27772e-08 -4.57363e-06)
(-4.47369e-06 2.50526e-07 1.2268e-07 8.95281e-06 6.95179e-08 -4.47912e-06)
(-4.35749e-06 2.36652e-07 1.23278e-07 8.7198e-06 8.97821e-08 -4.36231e-06)
(-4.2168e-06 2.20722e-07 1.22647e-07 8.43762e-06 1.13009e-07 -4.22082e-06)
(-4.05062e-06 2.03116e-07 1.20453e-07 8.10425e-06 1.38209e-07 -4.05363e-06)
(-3.8595e-06 1.84243e-07 1.16435e-07 7.72079e-06 1.63786e-07 -3.86129e-06)
(-3.64604e-06 1.64611e-07 1.10679e-07 7.29246e-06 1.87618e-07 -3.64642e-06)
(-3.41529e-06 1.44987e-07 1.04442e-07 6.82943e-06 2.08794e-07 -3.41415e-06)
(-3.17229e-06 1.25635e-07 9.9814e-08 6.34171e-06 2.304e-07 -3.16942e-06)
(-2.91507e-06 1.06655e-07 9.48975e-08 5.82507e-06 2.54298e-07 -2.91e-06)
(-2.64402e-06 8.84285e-08 8.91787e-08 5.28021e-06 2.79045e-07 -2.63619e-06)
(-2.36108e-06 7.12208e-08 8.26376e-08 4.71084e-06 3.03353e-07 -2.34976e-06)
(-2.06897e-06 5.52815e-08 7.50535e-08 4.12222e-06 3.25753e-07 -2.05324e-06)
(-1.77162e-06 4.08811e-08 6.60543e-08 3.52205e-06 3.43838e-07 -1.75043e-06)
(-1.47476e-06 2.83003e-08 5.53435e-08 2.92188e-06 3.54083e-07 -1.44712e-06)
(-1.18628e-06 1.781e-08 4.29902e-08 2.33795e-06 3.52324e-07 -1.15167e-06)
(-9.15927e-07 9.64093e-09 2.96877e-08 1.79076e-06 3.34975e-07 -8.74831e-07)
(-6.74101e-07 3.9309e-09 1.68232e-08 1.30258e-06 3.00815e-07 -6.28476e-07)
(-4.69981e-07 6.24416e-10 6.15484e-09 8.93182e-07 2.52631e-07 -4.23201e-07)
(-3.09831e-07 -5.53494e-10 -9.1379e-10 5.75506e-07 1.97765e-07 -2.65675e-07)
(-1.92084e-07 -3.6794e-10 -3.74291e-09 3.45686e-07 1.43937e-07 -1.53601e-07)
(-1.11688e-07 9.63009e-11 -3.28714e-09 1.91875e-07 9.78525e-08 -8.01869e-08)
(-6.0377e-08 2.65668e-10 -1.76677e-09 9.62132e-08 6.20176e-08 -3.58362e-08)
(-2.93586e-08 1.96411e-10 -6.51517e-10 4.08706e-08 3.54092e-08 -1.15121e-08)
(-1.12336e-08 7.98087e-11 -1.50156e-10 1.1849e-08 1.56564e-08 -6.15469e-10)
(-1.94756e-09 1.16765e-11 -1.16705e-11 9.7378e-10 2.92139e-09 9.73782e-10)
(-3.84375e-11 1.45256e-13 -5.23171e-14 -1.05569e-11 4.93728e-11 4.89944e-11)
(-2.75141e-14 3.30728e-17 1.1992e-18 -2.50385e-14 1.4079e-14 5.25526e-14)
(-6.10488e-05 1.52431e-07 -1.3816e-06 0.000122108 5.1028e-08 -6.10594e-05)
(-6.08752e-05 4.48995e-07 -1.3835e-06 0.000121762 1.44272e-07 -6.08867e-05)
(-6.05722e-05 7.30077e-07 -1.37116e-06 0.000121157 2.14443e-07 -6.05852e-05)
(-6.01967e-05 9.96108e-07 -1.35566e-06 0.000120409 2.54503e-07 -6.0212e-05)
(-5.98034e-05 1.24641e-06 -1.33797e-06 0.000119625 2.6448e-07 -5.98217e-05)
(-5.94357e-05 1.48076e-06 -1.31863e-06 0.000118893 2.49886e-07 -5.94574e-05)
(-5.91206e-05 1.69884e-06 -1.29764e-06 0.000118267 2.1941e-07 -5.91461e-05)
(-5.88687e-05 1.9e-06 -1.27457e-06 0.000117767 1.82905e-07 -5.88982e-05)
(-5.86759e-05 2.08332e-06 -1.24875e-06 0.000117385 1.49799e-07 -5.87093e-05)
(-5.85274e-05 2.24762e-06 -1.21944e-06 0.000117092 1.27703e-07 -5.85646e-05)
(-5.84024e-05 2.39159e-06 -1.18594e-06 0.000116845 1.21471e-07 -5.8443e-05)
(-5.82787e-05 2.51399e-06 -1.14774e-06 0.000116601 1.32432e-07 -5.83222e-05)
(-5.81369e-05 2.61391e-06 -1.10431e-06 0.00011632 1.58599e-07 -5.81829e-05)
(-5.79633e-05 2.69093e-06 -1.05496e-06 0.000115974 1.96389e-07 -5.80111e-05)
(-5.7749e-05 2.74513e-06 -9.98555e-07 0.000115547 2.43245e-07 -5.77979e-05)
(-5.74873e-05 2.77705e-06 -9.33654e-07 0.000115024 2.99941e-07 -5.75366e-05)
(-5.71698e-05 2.78745e-06 -8.58384e-07 0.000114388 3.72315e-07 -5.72186e-05)
(-5.67835e-05 2.77743e-06 -7.72133e-07 0.000113615 4.6945e-07 -5.6831e-05)
(-5.63345e-05 2.74833e-06 -6.75919e-07 0.000112714 6.01871e-07 -5.63797e-05)
(-5.57748e-05 2.69908e-06 -5.66796e-07 0.000111591 7.82206e-07 -5.58166e-05)
(-5.50708e-05 2.63085e-06 -4.4576e-07 0.000110178 1.0215e-06 -5.51076e-05)
(-5.41891e-05 2.54465e-06 -3.14139e-07 0.000108408 1.32673e-06 -5.42187e-05)
(-5.3096e-05 2.44152e-06 -1.75502e-07 0.000106211 1.69873e-06 -5.31155e-05)
(-5.17658e-05 2.32289e-06 -3.37214e-08 0.000103537 2.12997e-06 -5.17713e-05)
(-5.01834e-05 2.18938e-06 1.06968e-07 0.000100354 2.60632e-06 -5.01702e-05)
(-4.83441e-05 2.03993e-06 2.4165e-07 9.66509e-05 3.10435e-06 -4.83068e-05)
(-4.62551e-05 1.87332e-06 3.65485e-07 9.24435e-05 3.59146e-06 -4.61884e-05)
(-4.39419e-05 1.69571e-06 4.79594e-07 8.77827e-05 4.05247e-06 -4.38408e-05)
(-4.14398e-05 1.52109e-06 5.95436e-07 8.27352e-05 4.53938e-06 -4.12954e-05)
(-3.87251e-05 1.36039e-06 7.01184e-07 7.72473e-05 5.08615e-06 -3.85223e-05)
(-3.57965e-05 1.21367e-06 7.92088e-07 7.13123e-05 5.67177e-06 -3.55158e-05)
(-3.26643e-05 1.0796e-06 8.64344e-07 6.49446e-05 6.27766e-06 -3.22803e-05)
(-2.93459e-05 9.55374e-07 9.09792e-07 5.8171e-05 6.87999e-06 -2.88251e-05)
(-2.58711e-05 8.36499e-07 9.17657e-07 5.10438e-05 7.43454e-06 -2.51727e-05)
(-2.22891e-05 7.16838e-07 8.77816e-07 4.36587e-05 7.8697e-06 -2.13696e-05)
(-1.86736e-05 5.90351e-07 7.84796e-07 3.61716e-05 8.08984e-06 -1.7498e-05)
(-1.51239e-05 4.547e-07 6.41324e-07 2.88079e-05 7.99232e-06 -1.3684e-05)
(-1.17601e-05 3.1537e-07 4.60565e-07 2.1856e-05 7.50096e-06 -1.00959e-05)
(-8.7146e-06 1.87093e-07 2.65902e-07 1.56398e-05 6.61116e-06 -6.92518e-06)
(-6.12114e-06 9.4423e-08 8.60045e-08 1.04675e-05 5.42972e-06 -4.34636e-06)
(-4.03715e-06 4.88119e-08 -3.42462e-08 6.45808e-06 4.12052e-06 -2.42093e-06)
(-2.47711e-06 3.22351e-08 -6.67556e-08 3.59484e-06 2.87443e-06 -1.11773e-06)
(-1.36982e-06 2.18404e-08 -4.47272e-08 1.69943e-06 1.78756e-06 -3.29609e-07)
(-6.07605e-07 1.07428e-08 -1.63822e-08 5.67582e-07 8.72624e-07 4.0023e-08)
(-1.53364e-07 2.55441e-09 -2.5537e-09 7.66819e-08 2.30075e-07 7.66822e-08)
(-1.12335e-08 1.50201e-10 -7.97667e-11 -6.15483e-10 1.56563e-08 1.1849e-08)
(-1.25813e-10 1.08626e-12 -9.07568e-14 -7.72749e-11 1.26354e-10 2.03088e-10)
(-9.66656e-14 3.31508e-16 1.52474e-16 -9.25053e-14 3.44859e-14 1.89171e-13)
(-0.000206911 4.52295e-07 -1.16877e-05 0.000414042 2.42549e-07 -0.000207131)
(-0.000206585 1.33325e-06 -1.17573e-05 0.000413395 6.86596e-07 -0.00020681)
(-0.00020602 2.15919e-06 -1.17626e-05 0.00041227 1.02291e-06 -0.00020625)
(-0.000205326 2.92242e-06 -1.17638e-05 0.000410888 1.21832e-06 -0.000205562)
(-0.000204608 3.62258e-06 -1.17515e-05 0.00040946 1.27221e-06 -0.000204852)
(-0.000203952 4.26075e-06 -1.17173e-05 0.000408156 1.20964e-06 -0.000204204)
(-0.00020341 4.83943e-06 -1.16552e-05 0.000407079 1.07118e-06 -0.000203669)
(-0.000203002 5.36125e-06 -1.15619e-05 0.00040627 9.0363e-07 -0.000203268)
(-0.00020272 5.82808e-06 -1.14363e-05 0.000405709 7.52199e-07 -0.000202989)
(-0.000202531 6.2406e-06 -1.12799e-05 0.000405335 6.53714e-07 -0.000202804)
(-0.000202394 6.59818e-06 -1.10949e-05 0.000405061 6.31969e-07 -0.000202668)
(-0.000202261 6.89941e-06 -1.08852e-05 0.000404795 6.94234e-07 -0.000202534)
(-0.000202091 7.14276e-06 -1.06538e-05 0.000404452 8.32416e-07 -0.000202361)
(-0.00020185 7.32778e-06 -1.04024e-05 0.000403965 1.03118e-06 -0.000202115)
(-0.000201513 7.45574e-06 -1.01303e-05 0.000403286 1.28026e-06 -0.000201772)
(-0.00020106 7.53025e-06 -9.83524e-06 0.00040237 1.58539e-06 -0.00020131)
(-0.000200464 7.55675e-06 -9.5136e-06 0.000401166 1.97659e-06 -0.000200703)
(-0.000199695 7.54279e-06 -9.16471e-06 0.000399614 2.50028e-06 -0.00019992)
(-0.000198774 7.49468e-06 -8.783e-06 0.000397754 3.20664e-06 -0.00019898)
(-0.000197582 7.41382e-06 -8.37503e-06 0.000395346 4.15772e-06 -0.000197764)
(-0.000196044 7.30806e-06 -7.95005e-06 0.000392236 5.41275e-06 -0.000196192)
(-0.000194083 7.18255e-06 -7.51431e-06 0.000388268 7.0131e-06 -0.000194185)
(-0.000191621 7.0403e-06 -7.08201e-06 0.000383275 8.97365e-06 -0.000191654)
(-0.00018859 6.88298e-06 -6.66171e-06 0.000377119 1.12724e-05 -0.000188528)
(-0.000184946 6.70607e-06 -6.25322e-06 0.000369696 1.38611e-05 -0.000184751)
(-0.000180653 6.49174e-06 -5.85055e-06 0.000360935 1.66601e-05 -0.000180282)
(-0.000175678 6.20009e-06 -5.44984e-06 0.000350759 1.95614e-05 -0.000175081)
(-0.000169975 5.79865e-06 -4.97909e-06 0.000339069 2.2523e-05 -0.000169094)
(-0.000163487 5.4137e-06 -4.12155e-06 0.000325712 2.57592e-05 -0.000162225)
(-0.000156207 5.19418e-06 -3.27443e-06 0.000310638 2.94501e-05 -0.000154431)
(-0.000148113 5.09172e-06 -2.44965e-06 0.000293751 3.35558e-05 -0.000145638)
(-0.000139183 5.08685e-06 -1.67304e-06 0.000274943 3.80406e-05 -0.00013576)
(-0.000129417 5.15406e-06 -9.79823e-07 0.000254124 4.28329e-05 -0.000124707)
(-0.000118846 5.24737e-06 -3.97915e-07 0.000231259 4.77514e-05 -0.000112414)
(-0.000107543 5.29101e-06 6.71766e-08 0.000206413 5.24495e-05 -9.88707e-05)
(-9.56201e-05 5.18128e-06 4.37041e-07 0.000179794 5.63861e-05 -8.41743e-05)
(-8.32149e-05 4.80491e-06 7.42767e-07 0.0001518 5.88386e-05 -6.85852e-05)
(-7.04805e-05 4.07914e-06 9.81274e-07 0.000123081 5.89885e-05 -5.26003e-05)
(-5.75998e-05 3.00486e-06 1.06031e-06 9.46012e-05 5.61061e-05 -3.70014e-05)
(-4.48333e-05 1.83348e-06 7.29234e-07 6.76654e-05 4.98223e-05 -2.28321e-05)
(-3.24665e-05 9.61916e-07 4.34566e-08 4.35978e-05 4.03193e-05 -1.11314e-05)
(-2.10735e-05 5.06955e-07 -3.84159e-07 2.38626e-05 2.86777e-05 -2.78914e-06)
(-1.11807e-05 2.75774e-07 -3.25444e-07 9.58736e-06 1.62938e-05 1.59332e-06)
(-3.88743e-06 1.0628e-07 -1.06258e-07 1.94371e-06 5.83308e-06 1.94372e-06)
(-6.07605e-07 1.63855e-08 -1.07398e-08 4.00219e-08 8.72623e-07 5.67583e-07)
(-2.93585e-08 6.51655e-10 -1.96282e-10 -1.15121e-08 3.54091e-08 4.08706e-08)
(-3.11143e-10 4.59424e-12 4.54133e-13 -2.40313e-10 2.47224e-10 5.51456e-10)
(-2.52662e-13 1.61994e-15 1.34298e-15 -2.46493e-13 6.81387e-14 4.99155e-13)
(-0.000340265 5.94826e-07 1.7369e-06 0.000680534 5.13846e-07 -0.000340268)
(-0.00034003 1.75423e-06 1.6444e-06 0.000680064 1.45115e-06 -0.000340034)
(-0.000339638 2.82838e-06 1.46705e-06 0.000679282 2.15329e-06 -0.000339644)
(-0.000339179 3.79519e-06 1.26499e-06 0.000678368 2.54818e-06 -0.000339189)
(-0.000338742 4.65621e-06 1.0846e-06 0.0006775 2.63422e-06 -0.000338758)
(-0.000338395 5.41398e-06 9.63923e-07 0.000676815 2.46654e-06 -0.000338419)
(-0.000338182 6.07512e-06 9.28813e-07 0.000676396 2.13518e-06 -0.000338215)
(-0.000338114 6.64738e-06 9.91484e-07 0.000676269 1.74472e-06 -0.000338155)
(-0.000338179 7.13768e-06 1.15232e-06 0.000676407 1.39665e-06 -0.000338228)
(-0.000338346 7.55089e-06 1.40191e-06 0.000676749 1.17399e-06 -0.000338403)
(-0.000338575 7.88957e-06 1.72461e-06 0.000677214 1.13099e-06 -0.000338638)
(-0.000338821 8.15477e-06 2.10071e-06 0.000677711 1.28618e-06 -0.000338889)
(-0.00033904 8.34732e-06 2.51111e-06 0.000678152 1.62561e-06 -0.000339112)
(-0.00033919 8.46933e-06 2.94041e-06 0.000678456 2.12061e-06 -0.000339265)
(-0.000339235 8.52516e-06 3.37987e-06 0.000678545 2.75443e-06 -0.00033931)
(-0.000339134 8.52215e-06 3.82473e-06 0.000678342 3.54582e-06 -0.000339208)
(-0.000338847 8.46793e-06 4.2741e-06 0.000677762 4.56662e-06 -0.000338915)
(-0.000338337 8.37026e-06 4.72233e-06 0.000676731 5.92434e-06 -0.000338394)
(-0.00033763 8.24178e-06 5.18101e-06 0.000675295 7.73111e-06 -0.000337665)
(-0.000336587 8.08829e-06 5.61191e-06 0.000673168 1.01264e-05 -0.000336582)
(-0.000335129 7.91663e-06 5.97677e-06 0.000670182 1.32496e-05 -0.000335053)
(-0.000333187 7.73105e-06 6.24926e-06 0.000666179 1.72035e-05 -0.000332991)
(-0.000330685 7.53266e-06 6.3829e-06 0.000660979 2.20377e-05 -0.000330294)
(-0.000327557 7.3225e-06 6.35158e-06 0.000654429 2.77264e-05 -0.000326872)
(-0.000323765 7.09558e-06 6.16577e-06 0.000646416 3.41986e-05 -0.000322652)
(-0.000319272 6.83088e-06 5.87402e-06 0.000636843 4.13485e-05 -0.00031757)
(-0.000314017 6.45155e-06 5.51686e-06 0.000625549 4.90772e-05 -0.000311532)
(-0.000307875 5.83693e-06 4.9765e-06 0.000612228 5.74685e-05 -0.000304353)
(-0.000300687 5.3898e-06 4.09172e-06 0.000596449 6.6875e-05 -0.000295761)
(-0.000292452 5.39573e-06 3.11798e-06 0.000578038 7.76167e-05 -0.000285586)
(-0.000283162 5.723e-06 2.08376e-06 0.000556772 8.98318e-05 -0.00027361)
(-0.0002728 6.33532e-06 1.00107e-06 0.000532331 0.000103604 -0.000259531)
(-0.000261408 7.19746e-06 -6.12956e-08 0.000504422 0.000118941 -0.000243014)
(-0.000249096 8.23653e-06 -9.65879e-07 0.000472806 0.000135653 -0.00022371)
(-0.000236008 9.32691e-06 -1.5249e-06 0.000437279 0.000153233 -0.000201271)
(-0.000222227 1.0291e-05 -1.55351e-06 0.000397608 0.000170721 -0.000175381)
(-0.000207631 1.09076e-05 -9.55757e-07 0.000353457 0.000186543 -0.000145826)
(-0.000191703 1.08994e-05 1.93577e-07 0.000304384 0.000198307 -0.000112682)
(-0.000173325 9.72439e-06 1.64041e-06 0.000249994 0.000202562 -7.66686e-05)
(-0.00015036 7.22935e-06 2.15614e-06 0.000190184 0.000194245 -3.98238e-05)
(-0.00011968 4.33089e-06 6.60428e-07 0.000126145 0.000166949 -6.46486e-06)
(-8.07976e-05 2.23455e-06 -1.09712e-06 6.49015e-05 0.000118733 1.58962e-05)
(-3.98325e-05 1.01038e-06 -1.01015e-06 1.99162e-05 5.97659e-05 1.99163e-05)
(-1.11807e-05 3.25512e-07 -2.75711e-07 1.5933e-06 1.62938e-05 9.58737e-06)
(-1.36982e-06 4.47353e-08 -2.18332e-08 -3.2961e-07 1.78755e-06 1.69943e-06)
(-6.03769e-08 1.76708e-09 -2.65365e-10 -3.58362e-08 6.20175e-08 9.62131e-08)
(-6.62527e-10 1.34705e-11 3.57738e-12 -5.66139e-10 4.27184e-10 1.22867e-09)
(-5.52093e-13 5.12844e-15 6.45542e-15 -5.43638e-13 1.18322e-13 1.09573e-12)
(-0.000384707 4.80495e-07 1.20503e-05 0.00076954 7.50877e-07 -0.000384833)
(-0.000384704 1.40244e-06 1.2164e-05 0.000769534 2.11596e-06 -0.00038483)
(-0.000384702 2.23413e-06 1.21228e-05 0.000769526 3.13144e-06 -0.000384825)
(-0.000384699 2.96012e-06 1.20841e-05 0.00076952 3.69402e-06 -0.000384821)
(-0.000384695 3.57453e-06 1.20628e-05 0.000769515 3.80149e-06 -0.00038482)
(-0.000384692 4.07866e-06 1.2074e-05 0.000769514 3.53713e-06 -0.000384822)
(-0.000384688 4.47895e-06 1.21308e-05 0.000769513 3.03679e-06 -0.000384825)
(-0.000384685 4.78373e-06 1.22449e-05 0.000769514 2.45824e-06 -0.000384829)
(-0.000384681 5.00099e-06 1.24246e-05 0.000769514 1.95404e-06 -0.000384833)
(-0.000384677 5.13746e-06 1.26744e-05 0.000769513 1.64849e-06 -0.000384836)
(-0.000384672 5.1982e-06 1.29948e-05 0.000769512 1.62282e-06 -0.00038484)
(-0.000384667 5.18752e-06 1.33818e-05 0.00076951 1.90722e-06 -0.000384843)
(-0.000384662 5.10987e-06 1.38305e-05 0.000769507 2.48722e-06 -0.000384845)
(-0.000384656 4.97056e-06 1.43383e-05 0.000769502 3.32995e-06 -0.000384846)
(-0.000384648 4.77556e-06 1.49093e-05 0.000769492 4.42164e-06 -0.000384844)
(-0.000384639 4.53187e-06 1.55542e-05 0.000769477 5.80004e-06 -0.000384838)
(-0.000384628 4.24159e-06 1.62928e-05 0.000769452 7.57743e-06 -0.000384824)
(-0.000384614 3.90188e-06 1.71301e-05 0.000769411 9.914e-06 -0.000384797)
(-0.000384596 3.52395e-06 1.80617e-05 0.000769341 1.29813e-05 -0.000384745)
(-0.000384574 3.10853e-06 1.91151e-05 0.000769225 1.6996e-05 -0.000384651)
(-0.000384548 2.6447e-06 2.02756e-05 0.000769035 2.21782e-05 -0.000384487)
(-0.000384517 2.11798e-06 2.15431e-05 0.000768728 2.87121e-05 -0.000384212)
(-0.000384481 1.50817e-06 2.28846e-05 0.000768252 3.67235e-05 -0.000383771)
(-0.00038444 7.9823e-07 2.42825e-05 0.000767541 4.62519e-05 -0.000383101)
(-0.000384394 -2.53166e-08 2.57553e-05 0.000766517 5.72983e-05 -0.000382123)
(-0.000384337 -9.57685e-07 2.73724e-05 0.000765089 6.98632e-05 -0.000380751)
(-0.000384267 -1.96331e-06 2.9197e-05 0.000763139 8.40131e-05 -0.000378872)
(-0.000383365 -3.01594e-06 3.0505e-05 0.00075884 9.98492e-05 -0.000375475)
(-0.000376997 -3.816e-06 2.83984e-05 0.000742615 0.000116547 -0.000365618)
(-0.000369968 -4.62321e-06 2.61293e-05 0.00072377 0.000135698 -0.000353801)
(-0.000362427 -5.40421e-06 2.39155e-05 0.000702128 0.000157574 -0.000339701)
(-0.000354597 -6.17403e-06 2.18091e-05 0.000677474 0.000182467 -0.000322877)
(-0.000346822 -6.93538e-06 1.99542e-05 0.000649629 0.000210613 -0.000302808)
(-0.000339534 -7.66242e-06 1.85512e-05 0.000618378 0.000242083 -0.000278844)
(-0.000333137 -8.26397e-06 1.77729e-05 0.000583271 0.000276634 -0.000250134)
(-0.000327787 -8.55212e-06 1.76788e-05 0.00054334 0.000313435 -0.000215553)
(-0.000323056 -8.23532e-06 1.81523e-05 0.00049681 0.000350554 -0.000173753)
(-0.000317414 -6.9313e-06 1.88529e-05 0.000440932 0.00038406 -0.000123518)
(-0.000307516 -5.14633e-06 1.94824e-05 0.000372267 0.000406755 -6.47513e-05)
(-0.00028721 -3.54101e-06 1.69276e-05 0.00028791 0.000406296 -7.00073e-07)
(-0.000244362 1.10705e-07 6.64958e-06 0.000187369 0.000360777 5.69927e-05)
(-0.000169524 1.58768e-06 -1.58679e-06 8.47617e-05 0.000254295 8.4762e-05)
(-8.07974e-05 1.09761e-06 -2.23411e-06 1.58959e-05 0.000118733 6.49015e-05)
(-2.10734e-05 3.84293e-07 -5.06837e-07 -2.78916e-06 2.86776e-05 2.38626e-05)
(-2.4771e-06 6.6771e-08 -3.22212e-08 -1.11773e-06 2.87442e-06 3.59483e-06)
(-1.11688e-07 3.28773e-09 -9.56701e-11 -8.01868e-08 9.78522e-08 1.91874e-07)
(-1.27087e-09 2.81748e-11 1.33151e-11 -1.14579e-09 6.79865e-10 2.41666e-09)
(-1.0705e-12 1.1245e-14 2.13719e-14 -1.0596e-12 1.88332e-13 2.1301e-12)
(-0.000384741 2.89297e-07 -8.78259e-06 0.000769547 9.47819e-07 -0.000384807)
(-0.000384741 8.24212e-07 -8.72724e-06 0.000769542 2.66437e-06 -0.000384801)
(-0.00038474 1.27291e-06 -8.70742e-06 0.000769533 3.93151e-06 -0.000384794)
(-0.000384739 1.62748e-06 -8.66575e-06 0.000769527 4.62529e-06 -0.000384788)
(-0.000384739 1.87499e-06 -8.58901e-06 0.000769526 4.74627e-06 -0.000384787)
(-0.00038474 2.01643e-06 -8.46338e-06 0.00076953 4.40454e-06 -0.000384789)
(-0.000384743 2.0589e-06 -8.27619e-06 0.000769536 3.77582e-06 -0.000384793)
(-0.000384746 2.01193e-06 -8.01551e-06 0.000769543 3.06206e-06 -0.000384797)
(-0.000384751 1.885e-06 -7.67216e-06 0.000769551 2.45736e-06 -0.0003848)
(-0.000384757 1.68655e-06 -7.24101e-06 0.000769558 2.11961e-06 -0.000384801)
(-0.000384764 1.42317e-06 -6.72099e-06 0.000769564 2.15356e-06 -0.000384801)
(-0.000384771 1.09978e-06 -6.11662e-06 0.000769569 2.60327e-06 -0.000384799)
(-0.000384778 7.20251e-07 -5.43402e-06 0.000769572 3.46136e-06 -0.000384794)
(-0.000384784 2.87683e-07 -4.67649e-06 0.000769569 4.70102e-06 -0.000384785)
(-0.00038479 -1.95769e-07 -3.84051e-06 0.000769559 6.31963e-06 -0.000384769)
(-0.000384794 -7.27346e-07 -2.91294e-06 0.000769537 8.37571e-06 -0.000384743)
(-0.000384797 -1.31062e-06 -1.86704e-06 0.000769495 1.10135e-05 -0.000384698)
(-0.000384797 -1.9533e-06 -6.95556e-07 0.000769421 1.44294e-05 -0.000384623)
(-0.000384794 -2.64898e-06 6.02362e-07 0.000769291 1.88392e-05 -0.000384497)
(-0.000384787 -3.40624e-06 2.06685e-06 0.000769072 2.4508e-05 -0.000384285)
(-0.000384774 -4.24209e-06 3.68823e-06 0.00076871 3.16945e-05 -0.000383936)
(-0.000384753 -5.1809e-06 5.4824e-06 0.000768133 4.06172e-05 -0.000383379)
(-0.000384724 -6.25457e-06 7.41887e-06 0.000767243 5.1426e-05 -0.000382519)
(-0.000384683 -7.48615e-06 9.48003e-06 0.000765925 6.41706e-05 -0.000381242)
(-0.00038463 -8.88576e-06 1.16729e-05 0.000764046 7.88643e-05 -0.000379417)
(-0.000384561 -1.04163e-05 1.40238e-05 0.000761441 9.55455e-05 -0.00037688)
(-0.000384477 -1.1916e-05 1.65608e-05 0.000757899 0.000114341 -0.000373422)
(-0.000384382 -1.32208e-05 1.92591e-05 0.000753121 0.000135546 -0.000368739)
(-0.000384278 -1.49334e-05 2.17477e-05 0.000746599 0.000159893 -0.000362321)
(-0.000384138 -1.75653e-05 2.43613e-05 0.000737618 0.000188036 -0.00035348)
(-0.000383952 -2.08546e-05 2.71852e-05 0.000725325 0.000220252 -0.000341374)
(-0.000383715 -2.4676e-05 3.00635e-05 0.000708653 0.000256695 -0.000324938)
(-0.000383432 -2.88303e-05 3.27771e-05 0.000686352 0.000297172 -0.00030292)
(-0.000383122 -3.29589e-05 3.50608e-05 0.000657078 0.000341008 -0.000273955)
(-0.000382824 -3.65238e-05 3.66497e-05 0.000619527 0.000386942 -0.000236703)
(-0.000382595 -3.89049e-05 3.74096e-05 0.000572602 0.000433128 -0.000190007)
(-0.000382487 -3.96012e-05 3.75131e-05 0.000515567 0.000477211 -0.000133081)
(-0.000382511 -3.8161e-05 3.74639e-05 0.000448219 0.000516434 -6.57078e-05)
(-0.000382558 -3.53564e-05 3.90884e-05 0.000371182 0.00054778 1.13763e-05)
(-0.000382376 -3.70329e-05 4.34443e-05 0.00028517 0.000568739 9.72063e-05)
(-0.000341199 -2.49746e-05 2.49762e-05 0.0001706 0.000513016 0.0001706)
(-0.000244361 -6.64813e-06 -1.09691e-07 5.69923e-05 0.000360776 0.000187369)
(-0.000119679 -6.59663e-07 -4.33031e-06 -6.465e-06 0.000166949 0.000126144)
(-3.24663e-05 -4.32387e-08 -9.61738e-07 -1.11314e-05 4.03191e-05 4.35977e-05)
(-4.03713e-06 3.42721e-08 -4.87882e-08 -2.42093e-06 4.12051e-06 6.45806e-06)
(-1.92084e-07 3.74392e-09 3.69142e-10 -1.53601e-07 1.43936e-07 3.45685e-07)
(-2.25269e-09 4.02136e-11 3.34023e-11 -2.09759e-09 1.01345e-09 4.35028e-09)