/*--------------------------------*- C++ -*----------------------------------*\
| =========                 |                                                 |
| \\      /  F ield         | OpenFOAM: The Open Source CFD Toolbox           |
|  \\    /   O peration     | Version:  2412                                  |
|   \\  /    A nd           | Website:  www.openfoam.com                      |
|    \\/     M anipulation  |                                                 |
\*---------------------------------------------------------------------------*/
FoamFile
{
    version     2.0;
    format      ascii;
    arch        "LSB;label=32;scalar=64";
    class       volSymmTensorField;
    location    "2130";
    object      turbulenceProperties:R;
}
// * * * * * * * * * * * * * * * * * * * * * * * * * * * * * * * * * * * * * //

dimensions      [0 2 -2 0 0 0 0];

internalField   nonuniform List<symmTensor> 
2304
(
(1.08771e-05 3.57383e-12 -1.02949e-07 1.08771e-05 1.09631e-10 1.08768e-05)
(1.08525e-05 1.00939e-11 -1.026e-07 1.08525e-05 3.26044e-10 1.08522e-05)
(1.08095e-05 1.4965e-11 -1.01991e-07 1.08095e-05 5.38095e-10 1.08092e-05)
(1.07561e-05 1.76783e-11 -1.01236e-07 1.07561e-05 7.47481e-10 1.07558e-05)
(1.06999e-05 1.82392e-11 -1.00446e-07 1.06999e-05 9.54363e-10 1.06996e-05)
(1.06472e-05 1.7045e-11 -9.97072e-08 1.06472e-05 1.15737e-09 1.06469e-05)
(1.06019e-05 1.472e-11 -9.9074e-08 1.06019e-05 1.35414e-09 1.06016e-05)
(1.05654e-05 1.19674e-11 -9.85676e-08 1.05655e-05 1.54186e-09 1.05652e-05)
(1.05374e-05 9.45827e-12 -9.81806e-08 1.05375e-05 1.71753e-09 1.05371e-05)
(1.05158e-05 7.73242e-12 -9.78845e-08 1.05159e-05 1.87837e-09 1.05156e-05)
(1.04978e-05 7.13106e-12 -9.76391e-08 1.04978e-05 2.02205e-09 1.04975e-05)
(1.04803e-05 7.74165e-12 -9.7402e-08 1.04803e-05 2.14688e-09 1.04801e-05)
(1.04608e-05 9.41274e-12 -9.71377e-08 1.04609e-05 2.25195e-09 1.04606e-05)
(1.04376e-05 1.18779e-11 -9.68224e-08 1.04377e-05 2.33695e-09 1.04374e-05)
(1.04098e-05 1.49455e-11 -9.64435e-08 1.04098e-05 2.40177e-09 1.04096e-05)
(1.03768e-05 1.86629e-11 -9.59931e-08 1.03768e-05 2.44617e-09 1.03766e-05)
(1.03378e-05 2.34422e-11 -9.54602e-08 1.03378e-05 2.46927e-09 1.03376e-05)
(1.02911e-05 2.99345e-11 -9.48212e-08 1.02911e-05 2.46954e-09 1.02909e-05)
(1.02341e-05 3.8885e-11 -9.4041e-08 1.02341e-05 2.44611e-09 1.02339e-05)
(1.01632e-05 5.12214e-11 -9.30714e-08 1.01632e-05 2.39765e-09 1.0163e-05)
(1.00738e-05 6.77376e-11 -9.18507e-08 1.00738e-05 2.32309e-09 1.00736e-05)
(9.96099e-06 8.89332e-11 -9.03153e-08 9.96096e-06 2.22258e-09 9.96082e-06)
(9.81977e-06 1.14875e-10 -8.84036e-08 9.81974e-06 2.09766e-09 9.81962e-06)
(9.64607e-06 1.4503e-10 -8.60691e-08 9.64603e-06 1.95199e-09 9.64594e-06)
(9.43713e-06 1.78308e-10 -8.32873e-08 9.43708e-06 1.79091e-09 9.43701e-06)
(9.19202e-06 2.12767e-10 -8.00622e-08 9.19197e-06 1.62156e-09 9.19191e-06)
(8.91269e-06 2.45772e-10 -7.6438e-08 8.91264e-06 1.45209e-09 8.91259e-06)
(8.60398e-06 2.76326e-10 -7.2498e-08 8.60393e-06 1.28866e-09 8.60389e-06)
(8.26933e-06 3.0876e-10 -6.83066e-08 8.26927e-06 1.1221e-09 8.26926e-06)
(7.90334e-06 3.46206e-10 -6.38187e-08 7.90328e-06 9.44515e-10 7.9033e-06)
(7.50176e-06 3.87389e-10 -5.90122e-08 7.50169e-06 7.60444e-10 7.50174e-06)
(7.06144e-06 4.31122e-10 -5.38877e-08 7.06136e-06 5.7414e-10 7.06144e-06)
(6.57952e-06 4.75955e-10 -4.84599e-08 6.57944e-06 3.91169e-10 6.57954e-06)
(6.05407e-06 5.19017e-10 -4.2765e-08 6.05399e-06 2.19241e-10 6.05411e-06)
(5.48557e-06 5.5537e-10 -3.68774e-08 5.48549e-06 6.84392e-11 5.48561e-06)
(4.87889e-06 5.78216e-10 -3.09245e-08 4.87882e-06 -5.00798e-11 4.87893e-06)
(4.24502e-06 5.80231e-10 -2.5091e-08 4.24497e-06 -1.26879e-10 4.24505e-06)
(3.60176e-06 5.561e-10 -1.96034e-08 3.60173e-06 -1.58027e-10 3.60177e-06)
(2.97223e-06 5.0546e-10 -1.46905e-08 2.97223e-06 -1.48374e-10 2.97222e-06)
(2.38077e-06 4.3437e-10 -1.05284e-08 2.38078e-06 -1.11509e-10 2.38075e-06)
(1.84794e-06 3.53832e-10 -7.19807e-09 1.84796e-06 -6.66203e-11 1.84792e-06)
(1.38502e-06 2.74794e-10 -4.6693e-09 1.38503e-06 -3.08746e-11 1.385e-06)
(9.94088e-07 2.0377e-10 -2.83764e-09 9.94097e-07 -1.07328e-11 9.94078e-07)
(6.72428e-07 1.42869e-10 -1.57634e-09 6.72432e-07 -2.58468e-12 6.72425e-07)
(4.16282e-07 9.23074e-11 -7.65089e-10 4.16283e-07 -3.22298e-13 4.16281e-07)
(2.22397e-07 5.20799e-11 -2.96176e-10 2.22397e-07 1.20794e-14 2.22397e-07)
(8.90724e-08 2.25702e-11 -7.30215e-11 8.90724e-08 3.17522e-15 8.90724e-08)
(1.81822e-08 5.29183e-12 -5.29183e-12 1.81822e-08 -3.94333e-16 1.81822e-08)
(9.40127e-06 5.56402e-11 -5.20272e-07 9.40168e-06 5.15778e-10 9.40245e-06)
(9.37664e-06 1.57059e-10 -5.18327e-07 9.37705e-06 1.53061e-09 9.37781e-06)
(9.33265e-06 2.32677e-10 -5.14881e-07 9.33308e-06 2.51549e-09 9.33378e-06)
(9.27586e-06 2.74594e-10 -5.10493e-07 9.2763e-06 3.47441e-09 9.27694e-06)
(9.21265e-06 2.82923e-10 -5.05704e-07 9.21311e-06 4.4066e-09 9.21368e-06)
(9.14825e-06 2.63959e-10 -5.00949e-07 9.14872e-06 5.30582e-09 9.14924e-06)
(9.08615e-06 2.27526e-10 -4.96508e-07 9.08661e-06 6.16248e-09 9.0871e-06)
(9.02805e-06 1.84633e-10 -4.92508e-07 9.02851e-06 6.9655e-09 9.02899e-06)
(8.97408e-06 1.45692e-10 -4.8894e-07 8.97452e-06 7.70354e-09 8.975e-06)
(8.92309e-06 1.18964e-10 -4.85693e-07 8.92351e-06 8.36628e-09 8.92402e-06)
(8.87321e-06 1.09548e-10 -4.82595e-07 8.8736e-06 8.94525e-09 8.87415e-06)
(8.82222e-06 1.1859e-10 -4.79456e-07 8.82257e-06 9.43456e-09 8.82317e-06)
(8.76833e-06 1.43582e-10 -4.76119e-07 8.76863e-06 9.8315e-09 8.7693e-06)
(8.71046e-06 1.80309e-10 -4.72489e-07 8.71072e-06 1.01361e-08 8.71145e-06)
(8.64842e-06 2.25744e-10 -4.68536e-07 8.64862e-06 1.03497e-08 8.64943e-06)
(8.58254e-06 2.8048e-10 -4.64267e-07 8.58268e-06 1.04741e-08 8.58358e-06)
(8.51329e-06 3.50556e-10 -4.59692e-07 8.51337e-06 1.05094e-08 8.51436e-06)
(8.44085e-06 4.45422e-10 -4.54786e-07 8.44085e-06 1.04542e-08 8.44196e-06)
(8.36533e-06 5.76004e-10 -4.49485e-07 8.36525e-06 1.03094e-08 8.36647e-06)
(8.28327e-06 7.55791e-10 -4.43547e-07 8.28309e-06 1.00713e-08 8.28445e-06)
(8.19097e-06 9.96216e-10 -4.36684e-07 8.1907e-06 9.73781e-09 8.1922e-06)
(8.08446e-06 1.30455e-09 -4.28595e-07 8.08409e-06 9.31063e-09 8.08573e-06)
(7.9592e-06 1.68179e-09 -4.18962e-07 7.95873e-06 8.7953e-09 7.96049e-06)
(7.81117e-06 2.12027e-09 -4.07526e-07 7.81062e-06 8.20394e-09 7.81247e-06)
(7.63714e-06 2.60437e-09 -3.94116e-07 7.63652e-06 7.55311e-09 7.63841e-06)
(7.43491e-06 3.10596e-09 -3.78672e-07 7.43426e-06 6.86424e-09 7.43612e-06)
(7.20435e-06 3.58601e-09 -3.6131e-07 7.20369e-06 6.16476e-09 7.20546e-06)
(6.94878e-06 4.0289e-09 -3.42396e-07 6.94809e-06 5.48332e-09 6.94981e-06)
(6.67254e-06 4.49853e-09 -3.22318e-07 6.67178e-06 4.79598e-09 6.67356e-06)
(6.37186e-06 5.04038e-09 -3.00888e-07 6.37101e-06 4.0803e-09 6.37288e-06)
(6.0445e-06 5.63616e-09 -2.7806e-07 6.04356e-06 3.35665e-09 6.04552e-06)
(5.68844e-06 6.26987e-09 -2.53857e-07 5.68743e-06 2.63908e-09 5.68945e-06)
(5.30065e-06 6.92125e-09 -2.28309e-07 5.2996e-06 1.94245e-09 5.30164e-06)
(4.87745e-06 7.54716e-09 -2.01489e-07 4.8764e-06 1.28712e-09 4.8784e-06)
(4.41587e-06 8.07046e-09 -1.73611e-07 4.41489e-06 7.00923e-10 4.41671e-06)
(3.9156e-06 8.38089e-09 -1.45137e-07 3.91478e-06 2.17298e-10 3.91628e-06)
(3.38156e-06 8.35442e-09 -1.16856e-07 3.38097e-06 -1.30948e-10 3.38202e-06)
(2.82615e-06 7.8958e-09 -8.98763e-08 2.82584e-06 -3.22246e-10 2.82635e-06)
(2.27011e-06 6.99382e-09 -6.54799e-08 2.27007e-06 -3.60207e-10 2.27008e-06)
(1.73979e-06 5.75326e-09 -4.47961e-08 1.73993e-06 -2.80409e-10 1.73962e-06)
(1.26321e-06 4.38348e-09 -2.8559e-08 1.26339e-06 -1.52846e-10 1.26301e-06)
(8.61644e-07 3.09696e-09 -1.67975e-08 8.61778e-07 -5.24988e-11 8.61503e-07)
(5.44972e-07 2.02252e-09 -8.95405e-09 5.45038e-07 -6.79382e-12 5.44906e-07)
(3.12985e-07 1.20239e-09 -4.19537e-09 3.13007e-07 3.3652e-12 3.12964e-07)
(1.57671e-07 6.28723e-10 -1.63658e-09 1.57676e-07 2.25708e-12 1.57667e-07)
(6.60477e-08 2.68475e-10 -4.7543e-10 6.60481e-08 5.79564e-13 6.60472e-08)
(2.79215e-08 9.26998e-11 -9.26997e-11 2.79215e-08 6.02132e-14 2.79215e-08)
(8.90724e-08 7.30215e-11 -2.25702e-11 8.90724e-08 3.18311e-15 8.90724e-08)
(5.80615e-05 1.70866e-09 -9.23296e-06 5.80736e-05 8.44462e-09 5.81285e-05)
(5.79074e-05 4.82331e-09 -9.19935e-06 5.79197e-05 2.49215e-08 5.79743e-05)
(5.76313e-05 7.14718e-09 -9.13957e-06 5.7644e-05 4.07173e-08 5.76974e-05)
(5.72725e-05 8.43833e-09 -9.06295e-06 5.72855e-05 5.59275e-08 5.73374e-05)
(5.68693e-05 8.69977e-09 -8.97852e-06 5.68826e-05 7.04873e-08 5.6933e-05)
(5.64532e-05 8.12476e-09 -8.89355e-06 5.64667e-05 8.43193e-08 5.65159e-05)
(5.60455e-05 7.01478e-09 -8.81279e-06 5.6059e-05 9.73129e-08 5.61074e-05)
(5.56571e-05 5.70825e-09 -8.73848e-06 5.56703e-05 1.0934e-07 5.57184e-05)
(5.52894e-05 4.52486e-09 -8.67057e-06 5.5302e-05 1.20268e-07 5.53504e-05)
(5.49362e-05 3.71799e-09 -8.60732e-06 5.49481e-05 1.29973e-07 5.49972e-05)
(5.45868e-05 3.44375e-09 -8.54597e-06 5.45977e-05 1.38351e-07 5.46479e-05)
(5.42284e-05 3.73697e-09 -8.48339e-06 5.42381e-05 1.45327e-07 5.42898e-05)
(5.38505e-05 4.5208e-09 -8.41704e-06 5.38589e-05 1.50871e-07 5.39123e-05)
(5.34471e-05 5.66654e-09 -8.34536e-06 5.34541e-05 1.54989e-07 5.35093e-05)
(5.30176e-05 7.08155e-09 -8.26794e-06 5.30231e-05 1.57719e-07 5.30803e-05)
(5.25652e-05 8.78376e-09 -8.18506e-06 5.2569e-05 1.59112e-07 5.26285e-05)
(5.20939e-05 1.09562e-08 -8.09707e-06 5.20958e-05 1.59208e-07 5.21579e-05)
(5.16069e-05 1.38826e-08 -8.0039e-06 5.16067e-05 1.58039e-07 5.16718e-05)
(5.11113e-05 1.78987e-08 -7.90662e-06 5.11088e-05 1.55677e-07 5.11773e-05)
(5.05825e-05 2.34128e-08 -7.7996e-06 5.05775e-05 1.52058e-07 5.06497e-05)
(4.99983e-05 3.07702e-08 -7.67796e-06 4.99906e-05 1.47181e-07 5.00668e-05)
(4.93348e-05 4.01947e-08 -7.53665e-06 4.93244e-05 1.41076e-07 4.94044e-05)
(4.8564e-05 5.17205e-08 -7.37009e-06 4.8551e-05 1.33804e-07 4.86344e-05)
(4.76605e-05 6.51214e-08 -7.17367e-06 4.76452e-05 1.25491e-07 4.77311e-05)
(4.66035e-05 7.99428e-08 -6.94415e-06 4.65864e-05 1.16283e-07 4.66736e-05)
(4.53775e-05 9.53753e-08 -6.67994e-06 4.53593e-05 1.06365e-07 4.54462e-05)
(4.39787e-05 1.10271e-07 -6.38218e-06 4.396e-05 9.6107e-08 4.40449e-05)
(4.24256e-05 1.24143e-07 -6.05649e-06 4.24062e-05 8.61524e-08 4.24891e-05)
(4.07467e-05 1.38896e-07 -5.70987e-06 4.07254e-05 7.62622e-08 4.08085e-05)
(3.89194e-05 1.55871e-07 -5.3389e-06 3.88959e-05 6.6163e-08 3.89794e-05)
(3.69319e-05 1.74512e-07 -4.94304e-06 3.69064e-05 5.62601e-08 3.69895e-05)
(3.47724e-05 1.94366e-07 -4.5227e-06 3.47453e-05 4.66813e-08 3.48273e-05)
(3.24212e-05 2.14845e-07 -4.07793e-06 3.23932e-05 3.74401e-08 3.24728e-05)
(2.98527e-05 2.34638e-07 -3.60928e-06 2.98248e-05 2.85595e-08 2.98997e-05)
(2.70429e-05 2.51359e-07 -3.11942e-06 2.70169e-05 2.01322e-08 2.7084e-05)
(2.39829e-05 2.61531e-07 -2.61527e-06 2.39606e-05 1.23876e-08 2.40161e-05)
(2.06947e-05 2.61136e-07 -2.10976e-06 2.06782e-05 5.7514e-09 2.07186e-05)
(1.72492e-05 2.46916e-07 -1.62243e-06 1.72398e-05 8.2395e-10 1.7263e-05)
(1.37748e-05 2.18214e-07 -1.17745e-06 1.37723e-05 -1.84591e-09 1.37794e-05)
(1.04479e-05 1.78411e-07 -7.98719e-07 1.04503e-05 -2.08377e-09 1.04462e-05)
(7.44997e-06 1.33874e-07 -5.00213e-07 7.45398e-06 -7.76905e-10 7.44587e-06)
(4.93245e-06 9.18393e-08 -2.8494e-07 4.93548e-06 3.80073e-10 4.92926e-06)
(2.97364e-06 5.69811e-08 -1.43888e-07 2.97504e-06 6.07109e-10 2.97218e-06)
(1.57913e-06 3.08953e-08 -6.12805e-08 1.57954e-06 3.43367e-10 1.57872e-06)
(6.94668e-07 1.3328e-08 -1.96505e-08 6.94726e-07 1.0518e-10 6.9461e-07)
(2.25439e-07 3.51587e-09 -3.51587e-09 2.25439e-07 1.41749e-11 2.25439e-07)
(6.60476e-08 4.7543e-10 -2.68475e-10 6.60472e-08 5.79419e-13 6.60481e-08)
(2.22397e-07 2.96176e-10 -5.20798e-11 2.22397e-07 1.20371e-14 2.22397e-07)
(0.00020756 1.6627e-08 -6.08798e-05 0.000207675 5.06167e-08 0.0002071)
(0.000207043 4.69502e-08 -6.0685e-05 0.00020716 1.48732e-07 0.000206583)
(0.000206112 6.96082e-08 -6.03375e-05 0.000206232 2.41485e-07 0.000205657)
(0.000204898 8.22498e-08 -5.98899e-05 0.000205021 3.29286e-07 0.000204449)
(0.000203529 8.48984e-08 -5.93932e-05 0.000203654 4.116e-07 0.000203086)
(0.000202108 7.94196e-08 -5.88886e-05 0.000202234 4.88213e-07 0.000201673)
(0.000200706 6.87397e-08 -5.84034e-05 0.000200832 5.58878e-07 0.00020028)
(0.000199361 5.61598e-08 -5.79508e-05 0.000199483 6.23298e-07 0.000198944)
(0.000198078 4.48063e-08 -5.75311e-05 0.000198194 6.81128e-07 0.00019767)
(0.000196836 3.71632e-08 -5.71349e-05 0.000196946 7.31999e-07 0.00019644)
(0.000195602 3.47696e-08 -5.67468e-05 0.000195702 7.75546e-07 0.000195219)
(0.000194333 3.79889e-08 -5.63491e-05 0.000194422 8.11471e-07 0.000193964)
(0.000192994 4.61061e-08 -5.59272e-05 0.000193071 8.39639e-07 0.000192641)
(0.000191566 5.79074e-08 -5.54722e-05 0.00019163 8.60128e-07 0.000191231)
(0.000190046 7.25299e-08 -5.49816e-05 0.000190096 8.73225e-07 0.000189731)
(0.000188446 9.0188e-08 -5.44573e-05 0.00018848 8.79398e-07 0.000188153)
(0.00018678 1.12698e-07 -5.39015e-05 0.000186796 8.79143e-07 0.000186512)
(0.000185058 1.42885e-07 -5.33148e-05 0.000185055 8.72979e-07 0.000184819)
(0.0001833 1.83977e-07 -5.27043e-05 0.000183277 8.61482e-07 0.000183093)
(0.00018143 2.39921e-07 -5.2037e-05 0.000181383 8.4448e-07 0.000181258)
(0.000179373 3.14178e-07 -5.12848e-05 0.000179303 8.22208e-07 0.00017924)
(0.000177052 4.09026e-07 -5.04179e-05 0.000176958 7.94831e-07 0.000176961)
(0.000174372 5.24932e-07 -4.94028e-05 0.000174255 7.62442e-07 0.000174326)
(0.000171248 6.5987e-07 -4.8211e-05 0.00017111 7.25291e-07 0.000171247)
(0.000167608 8.09815e-07 -4.68211e-05 0.000167453 6.83321e-07 0.000167653)
(0.000163398 9.67837e-07 -4.52198e-05 0.00016323 6.36285e-07 0.000163487)
(0.000158593 1.1241e-06 -4.34061e-05 0.000158418 5.85411e-07 0.000158722)
(0.000153234 1.27424e-06 -4.14018e-05 0.000153051 5.35525e-07 0.000153402)
(0.000147399 1.4353e-06 -3.92399e-05 0.0001472 4.87159e-07 0.000147605)
(0.000141023 1.61951e-06 -3.6903e-05 0.000140808 4.40355e-07 0.000141266)
(0.00013407 1.82217e-06 -3.43873e-05 0.000133841 3.97438e-07 0.000134346)
(0.000126497 2.0396e-06 -3.16913e-05 0.000126257 3.58021e-07 0.000126802)
(0.00011823 2.2663e-06 -2.88099e-05 0.000117983 3.19971e-07 0.000118557)
(0.000109174 2.48937e-06 -2.5739e-05 0.000108928 2.80364e-07 0.00010951)
(9.92327e-05 2.68471e-06 -2.24864e-05 9.89987e-05 2.3602e-07 9.95625e-05)
(8.83538e-05 2.81624e-06 -1.90848e-05 8.81471e-05 1.84811e-07 8.86556e-05)
(7.65833e-05 2.84018e-06 -1.56069e-05 7.64203e-05 1.27873e-07 7.68336e-05)
(6.4132e-05 2.71716e-06 -1.21747e-05 6.40262e-05 7.15742e-08 6.43105e-05)
(5.14245e-05 2.43129e-06 -8.9558e-06 5.13809e-05 2.68515e-08 5.15213e-05)
(3.90905e-05 2.0086e-06 -6.13699e-06 3.90986e-05 6.00259e-09 3.91139e-05)
(2.78402e-05 1.51417e-06 -3.8574e-06 2.78711e-05 7.89753e-09 2.7822e-05)
(1.83087e-05 1.03171e-06 -2.17992e-06 1.8334e-05 1.37099e-08 1.82866e-05)
(1.087e-05 6.2129e-07 -1.06701e-06 1.08809e-05 1.13707e-08 1.08596e-05)
(5.60722e-06 3.09829e-07 -4.17331e-07 5.60946e-06 5.15474e-09 5.60499e-06)
(2.34286e-06 1.08846e-07 -1.08846e-07 2.34285e-06 1.20284e-09 2.34286e-06)
(6.94668e-07 1.96505e-08 -1.3328e-08 6.9461e-07 1.0517e-10 6.94726e-07)
(1.57671e-07 1.63658e-09 -6.28722e-10 1.57667e-07 2.25596e-12 1.57676e-07)
(4.16282e-07 7.65088e-10 -9.23072e-11 4.16281e-07 -3.22675e-13 4.16283e-07)
(0.000470893 7.07042e-08 -0.00018712 0.000471393 1.35233e-07 0.000467371)
(0.000469896 1.99625e-07 -0.000186648 0.000470401 3.98944e-07 0.000466357)
(0.000468086 2.95932e-07 -0.000185803 0.0004686 6.45765e-07 0.000464552)
(0.000465709 3.49672e-07 -0.000184704 0.000466232 8.72549e-07 0.000462185)
(0.000462999 3.60926e-07 -0.00018347 0.000463527 1.07938e-06 0.00045949)
(0.000460149 3.3759e-07 -0.000182196 0.000460678 1.26643e-06 0.000456664)
(0.000457293 2.92157e-07 -0.000180946 0.000457816 1.43435e-06 0.000453841)
(0.000454503 2.38799e-07 -0.000179754 0.000455012 1.58388e-06 0.000451095)
(0.000451794 1.90977e-07 -0.000178622 0.000452278 1.71554e-06 0.000448438)
(0.000449133 1.59414e-07 -0.000177531 0.000449585 1.82955e-06 0.00044584)
(0.000446458 1.50796e-07 -0.000176446 0.00044687 1.92578e-06 0.000443237)
(0.000443692 1.66848e-07 -0.000175326 0.000444058 2.00397e-06 0.00044055)
(0.000440772 2.04807e-07 -0.000174137 0.000441087 2.06405e-06 0.000437716)
(0.000437661 2.59872e-07 -0.000172859 0.00043792 2.1065e-06 0.000434697)
(0.000434358 3.28786e-07 -0.000171484 0.000434557 2.13249e-06 0.00043149)
(0.000430885 4.12894e-07 -0.000170019 0.00043102 2.14391e-06 0.00042812)
(0.000427273 5.20352e-07 -0.00016847 0.000427337 2.14281e-06 0.000424617)
(0.000423545 6.63747e-07 -0.00016684 0.000423531 2.13125e-06 0.000421003)
(0.000419716 8.5642e-07 -0.000165141 0.000419618 2.11146e-06 0.000417296)
(0.000415667 1.11491e-06 -0.000163302 0.000415479 2.08392e-06 0.000413376)
(0.000411267 1.45466e-06 -0.000161256 0.000410986 2.04976e-06 0.000409107)
(0.000406365 1.88605e-06 -0.00015893 0.00040599 2.00941e-06 0.000404339)
(0.000400781 2.41198e-06 -0.000156239 0.000400316 1.96253e-06 0.000398888)
(0.000394348 3.02515e-06 -0.000153109 0.0003938 1.90889e-06 0.000392585)
(0.00038692 3.71095e-06 -0.000149478 0.000386298 1.84644e-06 0.000385283)
(0.000378373 4.44608e-06 -0.000145298 0.000377688 1.77072e-06 0.00037686)
(0.000368615 5.2e-06 -0.000140537 0.000367882 1.67734e-06 0.000367225)
(0.000357624 5.96148e-06 -0.000135192 0.00035685 1.57088e-06 0.000356374)
(0.000345419 6.78974e-06 -0.000129275 0.000344597 1.47484e-06 0.000344412)
(0.000331972 7.72987e-06 -0.000122778 0.000331107 1.41321e-06 0.000331206)
(0.000317214 8.77136e-06 -0.000115682 0.000316316 1.38048e-06 0.000316687)
(0.00030103 9.90426e-06 -0.000107959 0.000300104 1.36937e-06 0.000300731)
(0.000283229 1.11069e-05 -9.95606e-05 0.000282286 1.36541e-06 0.000283142)
(0.000263561 1.23231e-05 -9.04345e-05 0.000262615 1.34767e-06 0.000263659)
(0.000241749 1.34452e-05 -8.0549e-05 0.000240824 1.28915e-06 0.000241996)
(0.000217558 1.43052e-05 -6.99271e-05 0.000216687 1.16199e-06 0.000217912)
(0.000190911 1.46847e-05 -5.86962e-05 0.000190142 9.49936e-07 0.00019132)
(0.000162051 1.43578e-05 -4.71425e-05 0.000161446 6.65553e-07 0.000162449)
(0.000131717 1.31702e-05 -3.57461e-05 0.000131348 3.62496e-07 0.000132024)
(0.00010126 1.11373e-05 -2.51601e-05 0.000101155 1.50238e-07 0.000101395)
(7.2568e-05 8.51672e-06 -1.60747e-05 7.26332e-05 8.9894e-08 7.25465e-05)
(4.76235e-05 5.76292e-06 -9.03352e-06 4.77058e-05 9.39646e-08 4.75676e-05)
(2.78891e-05 3.30485e-06 -4.2137e-06 2.79206e-05 6.89941e-08 2.78681e-05)
(1.39904e-05 1.45851e-06 -1.45851e-06 1.39913e-05 2.75122e-08 1.39913e-05)
(5.60722e-06 4.17331e-07 -3.09828e-07 5.60499e-06 5.15449e-09 5.60946e-06)
(1.57913e-06 6.12804e-08 -3.08952e-08 1.57872e-06 3.43309e-10 1.57953e-06)
(3.12985e-07 4.19536e-09 -1.20239e-09 3.12963e-07 3.36076e-12 3.13007e-07)
(6.72428e-07 1.57634e-09 -1.42869e-10 6.72424e-07 -2.58611e-12 6.72431e-07)
(0.000766216 1.74767e-07 -0.000345782 0.000767494 1.97954e-07 0.000766804)
(0.000764901 4.93012e-07 -0.000345127 0.000766189 5.87012e-07 0.000765459)
(0.000762519 7.30025e-07 -0.000343946 0.000763821 9.48325e-07 0.000763016)
(0.000759352 8.61451e-07 -0.000342395 0.000760667 1.2708e-06 0.000759781)
(0.000755679 8.87598e-07 -0.000340623 0.000757001 1.55695e-06 0.000756047)
(0.000751734 8.28226e-07 -0.000338753 0.00075305 1.80757e-06 0.00075206)
(0.000747681 7.14647e-07 -0.00033687 0.000748975 2.02477e-06 0.000747994)
(0.000743616 5.82478e-07 -0.00033502 0.000744868 2.21098e-06 0.000743948)
(0.000739563 4.65552e-07 -0.00033321 0.000740752 2.36828e-06 0.000739945)
(0.000735492 3.90851e-07 -0.000331419 0.000736599 2.49811e-06 0.000735953)
(0.000731335 3.75278e-07 -0.000329603 0.000732342 2.60114e-06 0.000731898)
(0.000727004 4.23686e-07 -0.000327713 0.000727895 2.6778e-06 0.000727685)
(0.000722427 5.30272e-07 -0.000325704 0.000723189 2.72897e-06 0.000723235)
(0.000717561 6.84605e-07 -0.000323546 0.000718183 2.75656e-06 0.000718502)
(0.00071241 8.80272e-07 -0.000321233 0.000712883 2.76348e-06 0.000713484)
(0.000707009 1.12221e-06 -0.000318772 0.000707322 2.75376e-06 0.000708217)
(0.000701406 1.43184e-06 -0.000316174 0.000701547 2.73047e-06 0.000702748)
(0.000695637 1.84112e-06 -0.000313447 0.000695592 2.69639e-06 0.000697112)
(0.000689709 2.38239e-06 -0.000310602 0.000689465 2.65504e-06 0.000691319)
(0.000683511 3.09592e-06 -0.000307556 0.000683055 2.60615e-06 0.000685248)
(0.00067689 4.02065e-06 -0.00030422 0.000676216 2.5501e-06 0.000678734)
(0.000669666 5.18342e-06 -0.000300499 0.000668773 2.48546e-06 0.000671591)
(0.000661614 6.59364e-06 -0.000296275 0.000660512 2.40958e-06 0.000663579)
(0.000652516 8.23692e-06 -0.000291434 0.000651218 2.3224e-06 0.000654472)
(0.000642169 1.0084e-05 -0.000285881 0.000640688 2.22194e-06 0.00064407)
(0.000630386 1.20937e-05 -0.000279531 0.000628723 2.10341e-06 0.000632202)
(0.000616988 1.42262e-05 -0.000272297 0.000615137 1.9702e-06 0.0006187)
(0.000601787 1.64949e-05 -0.000264082 0.000599789 1.87023e-06 0.000603352)
(0.000584609 1.89904e-05 -0.000254781 0.000582574 1.81646e-06 0.000585939)
(0.000565512 2.17905e-05 -0.000244426 0.000563497 1.80377e-06 0.00056659)
(0.000544407 2.49107e-05 -0.000232972 0.00054241 1.86255e-06 0.000545237)
(0.000521057 2.83414e-05 -0.000220319 0.000519087 1.97205e-06 0.000521647)
(0.000495098 3.2031e-05 -0.000206325 0.000493167 2.10041e-06 0.00049548)
(0.000466049 3.58397e-05 -0.000190826 0.000464153 2.20571e-06 0.00046628)
(0.000433323 3.9497e-05 -0.000173654 0.000431443 2.23652e-06 0.000433497)
(0.000396291 4.2571e-05 -0.000154675 0.000394402 2.13883e-06 0.000396518)
(0.000354418 4.44679e-05 -0.000133862 0.000352516 1.87133e-06 0.00035478)
(0.000307502 4.44949e-05 -0.000111407 0.000305649 1.42252e-06 0.000308)
(0.000255993 4.20109e-05 -8.78708e-05 0.000254441 8.19973e-07 0.000256507)
(0.000201459 3.66417e-05 -6.42883e-05 0.000200557 3.15447e-07 0.000201741)
(0.000147053 2.86628e-05 -4.22294e-05 0.000146803 1.90382e-07 0.000147035)
(9.73195e-05 1.93445e-05 -2.37461e-05 9.73414e-05 2.50723e-07 9.72381e-05)
(5.66839e-05 1.05734e-05 -1.05734e-05 5.66938e-05 1.88665e-07 5.66939e-05)
(2.78891e-05 4.2137e-06 -3.30484e-06 2.78681e-05 6.89916e-08 2.79206e-05)
(1.087e-05 1.067e-06 -6.21288e-07 1.08596e-05 1.13695e-08 1.08809e-05)
(2.97363e-06 1.43888e-07 -5.69808e-08 2.97217e-06 6.06917e-10 2.97503e-06)
(5.44971e-07 8.95402e-09 -2.02252e-09 5.44905e-07 -6.80662e-12 5.45037e-07)
(9.94087e-07 2.83764e-09 -2.0377e-10 9.94078e-07 -1.07366e-11 9.94096e-07)
(0.00102207 3.12459e-07 -0.000476384 0.00102442 1.9494e-07 0.00102705)
(0.00102062 8.79598e-07 -0.000475713 0.00102298 5.69802e-07 0.00102563)
(0.00101799 1.29923e-06 -0.000474488 0.00102037 9.08302e-07 0.00102298)
(0.00101445 1.52903e-06 -0.000472836 0.00101683 1.20388e-06 0.0010194)
(0.00101026 1.56982e-06 -0.000470881 0.00101264 1.45531e-06 0.00101518)
(0.00100564 1.45797e-06 -0.000468729 0.001008 1.66338e-06 0.00101055)
(0.00100077 1.25084e-06 -0.000466457 0.00100308 1.83075e-06 0.00100568)
(0.000995747 1.01357e-06 -0.00046411 0.00099797 1.96057e-06 0.00100067)
(0.0009906 8.07874e-07 -0.000461705 0.000992702 2.05558e-06 0.000995574)
(0.000985315 6.82841e-07 -0.000459234 0.000987262 2.1179e-06 0.000990361)
(0.000979834 6.69389e-07 -0.000456671 0.000981594 2.1489e-06 0.000984979)
(0.000974079 7.77494e-07 -0.000453981 0.000975625 2.15001e-06 0.000979346)
(0.000967985 9.99196e-07 -0.000451132 0.000969295 2.12367e-06 0.000973396)
(0.000961516 1.31928e-06 -0.000448108 0.000962573 2.07373e-06 0.00096709)
(0.000954685 1.73007e-06 -0.000444916 0.000955471 2.00491e-06 0.000960441)
(0.000947539 2.2436e-06 -0.000441577 0.000948038 1.92257e-06 0.000953501)
(0.000940143 2.89971e-06 -0.000438121 0.000940333 1.82818e-06 0.000946341)
(0.000932547 3.75481e-06 -0.000434571 0.000932406 1.72078e-06 0.000939015)
(0.000924774 4.86742e-06 -0.000430935 0.000924279 1.60468e-06 0.000931541)
(0.000916741 6.30985e-06 -0.000427171 0.000915869 1.47579e-06 0.000923845)
(0.000908315 8.15131e-06 -0.000423214 0.000907052 1.32776e-06 0.000915786)
(0.000899329 1.04428e-05 -0.000418979 0.000897667 1.15167e-06 0.000907195)
(0.00088956 1.3208e-05 -0.000414354 0.000887507 9.36929e-07 0.000897831)
(0.000878779 1.64327e-05 -0.00040922 0.000876351 6.82372e-07 0.000887452)
(0.000866756 2.00827e-05 -0.00040346 0.000863963 3.90666e-07 0.000875831)
(0.000853266 2.41158e-05 -0.000396953 0.000850088 7.20119e-08 0.00086276)
(0.00083807 2.85037e-05 -0.00038957 0.00083445 -2.51475e-07 0.000848014)
(0.000820855 3.32696e-05 -0.000380933 0.000816946 -5.49992e-07 0.00083105)
(0.00080144 3.84471e-05 -0.000369688 0.000797594 -7.70935e-07 0.000810829)
(0.000779787 4.42672e-05 -0.000357121 0.000776118 -9.8343e-07 0.000788318)
(0.000755774 5.07503e-05 -0.000343161 0.000752242 -1.18083e-06 0.000763469)
(0.000729046 5.788e-05 -0.000327648 0.000725655 -1.36815e-06 0.000735938)
(0.000699083 6.5549e-05 -0.000310366 0.000695827 -1.55398e-06 0.000705243)
(0.000665183 7.34955e-05 -0.000291038 0.000662024 -1.74346e-06 0.000670728)
(0.000626447 8.12388e-05 -0.000269322 0.000623315 -1.93542e-06 0.00063152)
(0.000581799 8.80222e-05 -0.000244824 0.000578625 -2.12227e-06 0.000586515)
(0.00053008 9.27799e-05 -0.000217151 0.000526845 -2.28582e-06 0.000534456)
(0.000470302 9.41664e-05 -0.000186061 0.000467025 -2.39489e-06 0.000474203)
(0.000401978 9.07283e-05 -0.000151716 0.000398997 -2.4826e-06 0.000405109)
(0.000325885 8.12338e-05 -0.00011504 0.000323862 -2.20152e-06 0.00032767)
(0.000244975 6.5139e-05 -7.79608e-05 0.000244106 -9.81087e-07 0.000245125)
(0.000165676 4.43398e-05 -4.43398e-05 0.000165445 4.53228e-08 0.000165445)
(9.73193e-05 2.37461e-05 -1.93445e-05 9.72378e-05 2.50712e-07 9.73413e-05)
(4.76233e-05 9.03349e-06 -5.76289e-06 4.75674e-05 9.39557e-08 4.77057e-05)
(1.83087e-05 2.17991e-06 -1.0317e-06 1.82865e-05 1.37069e-08 1.83339e-05)
(4.93242e-06 2.84939e-07 -9.18388e-08 4.92924e-06 3.796e-10 4.93546e-06)
(8.61641e-07 1.67974e-08 -3.09694e-09 8.615e-07 -5.25287e-11 8.61775e-07)
(1.38502e-06 4.66929e-09 -2.74794e-10 1.385e-06 -3.08829e-11 1.38503e-06)
(0.00122708 4.67751e-07 -0.000570466 0.00123066 1.3815e-07 0.00122274)
(0.00122562 1.31331e-06 -0.00056979 0.00122921 3.89921e-07 0.00122131)
(0.00122293 1.93356e-06 -0.000568541 0.00122653 6.00865e-07 0.00121864)
(0.00121923 2.2677e-06 -0.000566828 0.00122284 7.73617e-07 0.00121498)
(0.00121477 2.31817e-06 -0.000564756 0.00121835 9.00885e-07 0.00121057)
(0.00120972 2.14188e-06 -0.000562414 0.00121325 9.83188e-07 0.0012056)
(0.00120424 1.82732e-06 -0.000559871 0.00120767 1.0234e-06 0.00120023)
(0.00119843 1.47426e-06 -0.00055717 0.00120172 1.02511e-06 0.00119456)
(0.00119233 1.1768e-06 -0.000554332 0.00119542 9.91479e-07 0.00118865)
(0.00118594 1.00973e-06 -0.000551358 0.00118878 9.25105e-07 0.00118248)
(0.00117922 1.02077e-06 -0.000548231 0.00118177 8.27798e-07 0.00117603)
(0.00117212 1.22757e-06 -0.000544927 0.00117433 7.01377e-07 0.00116923)
(0.00116459 1.6228e-06 -0.000541422 0.00116644 5.48949e-07 0.00116204)
(0.00115661 2.18972e-06 -0.000537707 0.00115807 3.75168e-07 0.00115443)
(0.0011482 2.92279e-06 -0.000533794 0.00114925 1.8518e-07 0.00114643)
(0.00113943 3.84434e-06 -0.00052971 0.00114004 -1.51492e-08 0.0011381)
(0.00113038 5.01484e-06 -0.000525493 0.00113051 -2.27236e-07 0.00112953)
(0.00112112 6.51608e-06 -0.000521173 0.00112074 -4.5663e-07 0.0011208)
(0.0011117 8.43556e-06 -0.000516768 0.00111077 -6.98596e-07 0.00111196)
(0.00110207 1.08787e-05 -0.000512253 0.00110056 -9.6317e-07 0.00110298)
(0.00109216 1.39429e-05 -0.000507577 0.00109003 -1.26326e-06 0.00109376)
(0.00108182 1.77018e-05 -0.000502663 0.00107905 -1.61585e-06 0.00108418)
(0.00107087 2.21926e-05 -0.000497404 0.00106745 -2.04029e-06 0.00107402)
(0.00105908 2.74015e-05 -0.000491672 0.00105502 -2.53587e-06 0.00106304)
(0.00104621 3.32919e-05 -0.000485332 0.00104153 -3.08994e-06 0.001051)
(0.00103201 3.9829e-05 -0.000478235 0.00102671 -3.66803e-06 0.00103764)
(0.00101617 4.7004e-05 -0.000470211 0.00101026 -4.21913e-06 0.00102269)
(0.000998353 5.48624e-05 -0.000461068 0.000992007 -4.79015e-06 0.00100575)
(0.000978314 6.3606e-05 -0.000450605 0.00097181 -5.43006e-06 0.000986415)
(0.000956023 7.33901e-05 -0.000438686 0.00094944 -6.1801e-06 0.000964813)
(0.00093127 8.41982e-05 -0.00042508 0.000924604 -7.06887e-06 0.000940728)
(0.000903633 9.59334e-05 -0.000409451 0.000896914 -8.04211e-06 0.000913662)
(0.000872483 0.000108331 -0.000391368 0.000865771 -9.02065e-06 0.000882903)
(0.000836954 0.000120898 -0.000370333 0.000830343 -9.89663e-06 0.000847494)
(0.000795896 0.000132859 -0.000345809 0.000789531 -1.05437e-05 0.000806196)
(0.000747852 0.000143129 -0.000317279 0.000741948 -1.08494e-05 0.00075749)
(0.000691098 0.00015031 -0.000284345 0.000685938 -1.07456e-05 0.00069965)
(0.0006239 0.000152733 -0.000246883 0.000619583 -1.02247e-05 0.000631015)
(0.000544762 0.000148578 -0.000205316 0.000541506 -9.55503e-06 0.000550224)
(0.000452991 0.000136405 -0.000160819 0.000452126 -8.80609e-06 0.000456673)
(0.000351195 0.000112187 -0.000112187 0.000351663 -4.9996e-06 0.000351664)
(0.000244974 7.79606e-05 -6.51389e-05 0.000245125 -9.8109e-07 0.000244106)
(0.000147052 4.22292e-05 -2.86626e-05 0.000147034 1.90356e-07 0.000146803)
(7.25677e-05 1.60745e-05 -8.51666e-06 7.25461e-05 8.98749e-08 7.26329e-05)
(2.784e-05 3.85737e-06 -1.51415e-06 2.78218e-05 7.89133e-09 2.78709e-05)
(7.44992e-06 5.0021e-07 -1.33873e-07 7.44582e-06 -7.77863e-10 7.45393e-06)
(1.2632e-06 2.85588e-08 -4.38345e-09 1.263e-06 -1.52906e-10 1.26338e-06)
(1.84794e-06 7.19806e-09 -3.53831e-10 1.84791e-06 -6.66362e-11 1.84796e-06)
(0.00138206 6.35291e-07 -0.000642144 0.00138701 3.28279e-08 0.00137374)
(0.00138066 1.78084e-06 -0.000641487 0.00138561 8.17191e-08 0.00137231)
(0.00137803 2.61536e-06 -0.000640259 0.00138298 9.96598e-08 0.00136967)
(0.00137434 3.05834e-06 -0.000638541 0.00137927 8.56198e-08 0.001366)
(0.00136975 3.1163e-06 -0.000636411 0.00137463 3.30384e-08 0.00136148)
(0.00136442 2.87034e-06 -0.000633935 0.0013692 -5.91016e-08 0.00135626)
(0.00135846 2.44445e-06 -0.000631169 0.00136308 -1.89407e-07 0.00135048)
(0.00135195 1.97739e-06 -0.000628154 0.00135636 -3.55499e-07 0.00134423)