/*--------------------------------*- C++ -*----------------------------------*\
| =========                 |                                                 |
| \\      /  F ield         | OpenFOAM: The Open Source CFD Toolbox           |
|  \\    /   O peration     | Version:  2412                                  |
|   \\  /    A nd           | Website:  www.openfoam.com                      |
|    \\/     M anipulation  |                                                 |
\*---------------------------------------------------------------------------*/
FoamFile
{
    version     2.0;
    format      ascii;
    arch        "LSB;label=32;scalar=64";
    class       volVectorField;
    location    "2130";
    object      U;
}
// * * * * * * * * * * * * * * * * * * * * * * * * * * * * * * * * * * * * * //

dimensions      [0 1 -1 0 0 0 0];

internalField   nonuniform List<vector> 
2304
(
(0.0233819 -2.57357e-05 3.35671e-05)
(0.0233556 -7.67148e-05 3.38276e-05)
(0.0233095 -0.000127262 3.3633e-05)
(0.0232522 -0.000178026 3.33889e-05)
(0.023192 -0.000229006 3.31129e-05)
(0.0231356 -0.00027972 3.28147e-05)
(0.0230872 -0.000329372 3.24996e-05)
(0.0230486 -0.000377041 3.217e-05)
(0.0230193 -0.00042182 3.1824e-05)
(0.0229972 -0.000462941 3.14584e-05)
(0.0229791 -0.000499832 3.10683e-05)
(0.0229618 -0.000532158 3.06497e-05)
(0.0229423 -0.000559793 3.01978e-05)
(0.022919 -0.000582751 2.971e-05)
(0.0228906 -0.000601046 2.91784e-05)
(0.0228566 -0.000614627 2.85989e-05)
(0.0228159 -0.000623262 2.79556e-05)
(0.0227665 -0.000626575 2.72451e-05)
(0.0227055 -0.000624406 2.64788e-05)
(0.0226287 -0.000616493 2.56138e-05)
(0.0225308 -0.000602625 2.46584e-05)
(0.0224059 -0.000582862 2.35924e-05)
(0.022248 -0.000557542 2.24323e-05)
(0.0220517 -0.000527462 2.11868e-05)
(0.0218127 -0.000493779 1.98882e-05)
(0.0215286 -0.000458148 1.85875e-05)
(0.0212 -0.000422532 1.73084e-05)
(0.0208307 -0.000388268 1.59616e-05)
(0.0204228 -0.000351431 1.37877e-05)
(0.0199671 -0.000308349 1.15103e-05)
(0.0194544 -0.000259411 9.10163e-06)
(0.0188759 -0.000204676 6.58247e-06)
(0.0182213 -0.000144471 4.01225e-06)
(0.0174793 -7.99413e-05 1.54531e-06)
(0.0166391 -1.36783e-05 -5.60759e-07)
(0.0156931 4.98459e-05 -1.96197e-06)
(0.0146402 0.000104238 -2.26429e-06)
(0.013489 0.000141923 -1.16503e-06)
(0.0122596 0.000156106 1.25978e-06)
(0.0109818 0.000143696 4.39849e-06)
(0.00968772 0.000109572 6.65857e-06)
(0.00840121 6.77729e-05 6.50622e-06)
(0.00713144 3.3182e-05 4.47328e-06)
(0.00587671 1.2151e-05 2.2254e-06)
(0.00463033 2.69808e-06 7.04532e-07)
(0.00338179 -3.13936e-08 2.99186e-09)
(0.00211217 -1.57967e-07 -1.1398e-07)
(0.000778139 -4.68974e-09 4.96365e-09)
(0.0707014 -7.4449e-05 9.86324e-05)
(0.0706213 -0.000221819 9.91343e-05)
(0.0704813 -0.000367313 9.94584e-05)
(0.0703072 -0.000512405 9.98135e-05)
(0.0701241 -0.000657129 0.000100069)
(0.0699524 -0.000800202 0.000100107)
(0.0698052 -0.000939537 9.98448e-05)
(0.0696877 -0.00107272 9.92361e-05)
(0.0695984 -0.00119738 9.82684e-05)
(0.0695307 -0.0013115 9.69637e-05)
(0.0694753 -0.00141359 9.53598e-05)
(0.069422 -0.00150274 9.35139e-05)
(0.0693623 -0.00157862 9.14699e-05)
(0.0692906 -0.00164127 8.92468e-05)
(0.0692035 -0.00169072 8.68115e-05)
(0.0690991 -0.00172688 8.41079e-05)
(0.0689744 -0.0017492 8.10229e-05)
(0.0688232 -0.00175686 7.75405e-05)
(0.0686365 -0.00174949 7.36903e-05)
(0.0684019 -0.00172651 6.93481e-05)
(0.068103 -0.00168756 6.46243e-05)
(0.0677221 -0.00163295 5.95793e-05)
(0.0672408 -0.00156371 5.44584e-05)
(0.0666428 -0.00148193 4.95004e-05)
(0.0659153 -0.00139053 4.50373e-05)
(0.0650509 -0.00129342 4.14453e-05)
(0.0640509 -0.00119502 3.86812e-05)
(0.0629269 -0.00109824 3.49994e-05)
(0.0616859 -0.000994731 2.64446e-05)
(0.0602991 -0.000876867 1.63245e-05)
(0.0587395 -0.000745468 5.32098e-06)
(0.0569802 -0.000600829 -6.48314e-06)
(0.0549904 -0.000443996 -1.85728e-05)
(0.0527361 -0.000277991 -2.9667e-05)
(0.0501842 -0.000109143 -3.76559e-05)
(0.047311 5.20562e-05 -3.97748e-05)
(0.0441117 0.000190946 -3.31596e-05)
(0.040611 0.000290343 -1.60528e-05)
(0.0368684 0.000334796 1.01977e-05)
(0.0329741 0.000316753 3.93809e-05)
(0.0290283 0.000246305 5.91929e-05)
(0.0251068 0.000154965 5.94656e-05)
(0.0212394 7.73373e-05 4.39653e-05)
(0.0174216 2.91397e-05 2.48663e-05)
(0.0136347 6.93105e-06 1.04761e-05)
(0.00985176 2.39583e-07 2.72773e-06)
(0.00603278 -2.00283e-07 2.00136e-07)
(0.00211217 1.14173e-07 1.58676e-07)
(0.119464 -0.000120971 -8.08233e-05)
(0.119329 -0.000359979 -8.04323e-05)
(0.119094 -0.000594877 -7.72788e-05)
(0.118801 -0.000827765 -7.34749e-05)
(0.118492 -0.00105859 -6.96768e-05)
(0.118203 -0.00128546 -6.6427e-05)
(0.117954 -0.00150528 -6.41029e-05)
(0.117755 -0.00171453 -6.29013e-05)
(0.117603 -0.0019097 -6.28555e-05)
(0.117488 -0.00208785 -6.38526e-05)
(0.117392 -0.00224675 -6.56959e-05)
(0.1173 -0.00238509 -6.81276e-05)
(0.117196 -0.00250234 -7.09325e-05)
(0.117072 -0.00259855 -7.39925e-05)
(0.116921 -0.00267382 -7.73494e-05)
(0.116741 -0.00272806 -8.11394e-05)
(0.116525 -0.00276062 -8.56205e-05)
(0.116264 -0.00277049 -9.08249e-05)
(0.115943 -0.00275723 -9.66921e-05)
(0.11554 -0.00272016 -0.000103292)
(0.115029 -0.00265901 -0.000110182)
(0.114379 -0.00257444 -0.000116967)
(0.113559 -0.00246811 -0.000122832)
(0.112544 -0.00234313 -0.000126992)
(0.11131 -0.00220355 -0.000128542)
(0.109846 -0.00205444 -0.000126559)
(0.108153 -0.00190155 -0.000121198)
(0.106249 -0.00174919 -0.000116851)
(0.104144 -0.00158732 -0.000122304)
(0.101791 -0.00140691 -0.000130568)
(0.099146 -0.00120953 -0.000139912)
(0.0961643 -0.000995729 -0.00015026)
(0.0927953 -0.000766957 -0.000160501)
(0.0889819 -0.000527136 -0.000167783)
(0.0846689 -0.000284241 -0.000167426)
(0.0798146 -5.13658e-05 -0.000153371)
(0.0744076 0.000153124 -0.000119548)
(0.0684834 0.000307044 -6.27295e-05)
(0.0621364 0.000388902 1.31332e-05)
(0.0555159 0.000384436 9.28e-05)
(0.0487967 0.000302016 0.000146338)
(0.0421179 0.00018426 0.000148873)
(0.0355375 8.28139e-05 0.000110347)
(0.0290521 2.21805e-05 6.21915e-05)
(0.0226346 -2.34548e-06 2.58206e-05)
(0.0162496 -6.15991e-06 6.15226e-06)
(0.00985176 -2.72982e-06 -2.42255e-07)
(0.00338179 -3.02398e-09 3.17176e-08)
(0.168442 -0.000163809 -0.000255912)
(0.168257 -0.000486539 -0.00025588)
(0.167934 -0.000801986 -0.000252479)
(0.167531 -0.0011128 -0.000248419)
(0.167108 -0.00141865 -0.00024449)
(0.16671 -0.00171721 -0.000241366)
(0.166369 -0.00200486 -0.000239556)
(0.166094 -0.00227737 -0.000239365)
(0.165884 -0.00253061 -0.000240903)
(0.165722 -0.00276104 -0.000244088)
(0.165587 -0.00296599 -0.000248715)
(0.165456 -0.00314385 -0.000254476)
(0.165308 -0.00329398 -0.000261101)
(0.16513 -0.00341641 -0.000268461)
(0.164914 -0.00351133 -0.000276665)
(0.164655 -0.00357876 -0.000285983)
(0.164344 -0.00361819 -0.000296891)
(0.163968 -0.00362877 -0.000309489)
(0.163506 -0.00361012 -0.000323499)
(0.162928 -0.00356163 -0.000339367)
(0.162197 -0.00348343 -0.000356459)
(0.161273 -0.00337658 -0.000374158)
(0.160114 -0.00324327 -0.000391131)
(0.158683 -0.00308719 -0.000406032)
(0.156953 -0.00291276 -0.000417316)
(0.154904 -0.00272503 -0.000423291)
(0.152536 -0.00252973 -0.00042363)
(0.149867 -0.00233273 -0.000424363)
(0.146907 -0.00212524 -0.000438363)
(0.143594 -0.00189962 -0.000455246)
(0.139871 -0.00165843 -0.000472215)
(0.135676 -0.00140234 -0.000488907)
(0.130943 -0.0011325 -0.00050299)
(0.125592 -0.000852206 -0.000509107)
(0.11955 -0.000568176 -0.000498671)
(0.112755 -0.000291748 -0.00046047)
(0.105183 -3.97482e-05 -0.000382802)
(0.0968705 0.000165422 -0.000258386)
(0.0879285 0.00029808 -9.23836e-05)
(0.078551 0.000331747 8.83365e-05)
(0.068987 0.00026237 0.000222403)
(0.0594542 0.000138284 0.000251664)
(0.0500571 3.036e-05 0.000190427)
(0.0408066 -2.5809e-05 0.000103432)
(0.0316777 -3.70045e-05 3.69766e-05)
(0.0226346 -2.58339e-05 2.32784e-06)
(0.0136347 -1.04805e-05 -6.93919e-06)
(0.00463033 -7.0479e-07 -2.69938e-06)
(0.214437 -0.00019984 0.000293971)
(0.214216 -0.000592745 0.00029551)
(0.213829 -0.000974642 0.000296471)
(0.213348 -0.0013481 0.000297508)
(0.212842 -0.00171256 0.000298039)
(0.212368 -0.00206562 0.000297508)
(0.21196 -0.00240354 0.000295435)
(0.211633 -0.002722 0.000291458)
(0.211383 -0.00301675 0.000285352)
(0.211189 -0.00328413 0.000277062)
(0.211027 -0.00352135 0.000266645)
(0.210867 -0.00372665 0.000254281)
(0.210684 -0.00389929 0.000240104)
(0.210462 -0.00403932 0.00022408)
(0.21019 -0.00414701 0.000205876)
(0.20986 -0.00422263 0.000184943)
(0.209463 -0.00426606 0.000160464)
(0.208978 -0.00427697 0.000132163)
(0.208379 -0.00425521 0.000100192)
(0.207633 -0.00420041 6.36455e-05)
(0.206693 -0.00411339 2.30679e-05)
(0.205513 -0.0039957 -2.10199e-05)
(0.204043 -0.00384987 -6.71122e-05)
(0.20224 -0.00367987 -0.000113696)
(0.200071 -0.00348985 -0.000159063)
(0.197516 -0.00328366 -0.000201248)
(0.194567 -0.00306515 -0.000239336)
(0.191235 -0.00284044 -0.000278609)
(0.187519 -0.0026067 -0.000332259)
(0.183353 -0.00236284 -0.000390665)
(0.17867 -0.00211134 -0.000451728)
(0.1734 -0.00185263 -0.000515235)
(0.167462 -0.00158699 -0.000577911)
(0.160765 -0.00131536 -0.000632346)
(0.153217 -0.00103962 -0.000666635)
(0.144742 -0.00076332 -0.000664589)
(0.135298 -0.000493374 -0.000607174)
(0.1249 -0.000243152 -0.000476916)
(0.113641 -3.57641e-05 -0.000267022)
(0.101716 8.44801e-05 2.71446e-06)
(0.0894181 8.12817e-05 0.000240775)
(0.0770526 -7.96301e-06 0.000325441)
(0.0648 -9.4632e-05 0.000252649)
(0.0527167 -0.000124989 0.000124925)
(0.0408066 -0.00010347 2.57602e-05)
(0.0290521 -6.22104e-05 -2.2213e-05)
(0.0174216 -2.48728e-05 -2.91568e-05)
(0.00587671 -2.22588e-06 -1.21554e-05)
(0.254416 -0.000226046 0.000547799)
(0.254174 -0.000670194 0.000553351)
(0.253751 -0.00109996 0.0005584)
(0.253227 -0.00151702 0.000564148)
(0.252677 -0.00192091 0.000568908)
(0.252163 -0.00230927 0.00057122)
(0.251722 -0.00267856 0.000570002)
(0.251371 -0.00302473 0.000564636)
(0.251102 -0.00334375 0.000554928)
(0.250895 -0.00363213 0.000541093)
(0.250718 -0.00388712 0.000523595)
(0.250541 -0.00410701 0.000503095)
(0.250335 -0.00429105 0.000480188)
(0.250081 -0.00443933 0.000455201)
(0.249764 -0.00455228 0.000428024)
(0.249374 -0.00463049 0.000398253)
(0.248897 -0.00467424 0.000365159)
(0.248311 -0.0046837 0.000328569)
(0.247583 -0.0046591 0.00028815)
(0.246677 -0.00460046 0.000244167)
(0.245543 -0.00450917 0.000197969)
(0.24413 -0.00438721 0.000150659)
(0.242386 -0.00423739 0.000104653)
(0.240265 -0.00406387 6.19773e-05)
(0.237735 -0.0038706 2.42189e-05)
(0.234771 -0.00366012 -7.29624e-06)
(0.231363 -0.00343222 -3.25008e-05)
(0.227507 -0.00318729 -6.3328e-05)
(0.223181 -0.00293624 -0.000138909)
(0.218328 -0.00269454 -0.000219487)
(0.212883 -0.00245925 -0.00030253)
(0.206769 -0.00223027 -0.000386959)
(0.1999 -0.00200752 -0.000468637)
(0.192181 -0.00178982 -0.000540185)
(0.183516 -0.00157362 -0.000591345)
(0.173819 -0.00135253 -0.000609281)
(0.163028 -0.0011187 -0.000578718)
(0.151124 -0.000866815 -0.000482777)
(0.138152 -0.000600567 -0.00030461)
(0.12424 -0.000369176 -3.33129e-05)
(0.109643 -0.000247195 0.00024942)
(0.0947121 -0.00023794 0.00035974)
(0.0797162 -0.000263335 0.000263217)
(0.0648 -0.000252728 9.4534e-05)
(0.0500571 -0.000190474 -3.04358e-05)
(0.0355375 -0.000110371 -8.28664e-05)
(0.0212394 -4.39738e-05 -7.73669e-05)
(0.00713144 -4.47391e-06 -3.31908e-05)
(0.287997 -0.000242672 0.000218097)
(0.287744 -0.000719072 0.000222772)
(0.287304 -0.00117834 0.000229946)
(0.286759 -0.00162145 0.000238081)
(0.28619 -0.00204791 0.000244975)
(0.285661 -0.00245546 0.000248724)
(0.28521 -0.0028408 0.00024792)
(0.284852 -0.00320014 0.000241744)
(0.284581 -0.00352972 0.000229933)
(0.28437 -0.00382624 0.000212748)
(0.284189 -0.00408711 0.00019079)
(0.284003 -0.00431068 0.000164943)
(0.28378 -0.00449632 0.000136031)
(0.283497 -0.00464424 0.00010458)
(0.283137 -0.00475507 7.05765e-05)
(0.282687 -0.00482964 3.36357e-05)
(0.282128 -0.00486838 -7.05493e-06)
(0.281433 -0.00487157 -5.16043e-05)
(0.280569 -0.00483984 -0.000100263)
(0.279495 -0.00477345 -0.000152695)
(0.27816 -0.00467375 -0.000207084)
(0.276513 -0.00454261 -0.000262054)
(0.2745 -0.00438263 -0.000314511)
(0.272078 -0.00419779 -0.000362038)
(0.269213 -0.00399178 -0.000403262)
(0.265883 -0.00376679 -0.00043786)
(0.262072 -0.00352101 -0.000466437)
(0.257772 -0.00325164 -0.000490672)
(0.252957 -0.00298475 -0.000516277)
(0.247568 -0.00274018 -0.000543739)
(0.241542 -0.00251082 -0.00057334)
(0.234805 -0.00229519 -0.000605566)
(0.227274 -0.00209202 -0.000639593)
(0.218858 -0.00189837 -0.000672684)
(0.209464 -0.00170866 -0.000699055)
(0.199003 -0.00151523 -0.000707829)
(0.187397 -0.00131062 -0.000680526)
(0.174594 -0.00108967 -0.000590492)
(0.16058 -0.000843971 -0.000406058)
(0.145397 -0.000609315 -9.36718e-05)
(0.129163 -0.000450743 0.000248969)
(0.112165 -0.000385624 0.000385447)
(0.0947121 -0.000359873 0.000237778)
(0.0770526 -0.000325532 7.82545e-06)
(0.0594542 -0.00025172 -0.000138393)
(0.0421179 -0.000148901 -0.000184338)
(0.0251068 -5.94757e-05 -0.00015501)
(0.0084012 -6.50704e-06 -6.77875e-05)
(0.316405 -0.000252049 0.000231337)
(0.316147 -0.000746029 0.000233823)
(0.315701 -0.0012206 0.000239938)
(0.31515 -0.00167657 0.000246686)
(0.314578 -0.00211318 0.000251987)
(0.314048 -0.00252819 0.000253986)
(0.313599 -0.00291849 0.000251249)
(0.313245 -0.00328054 0.000242839)
(0.312976 -0.0036108 0.000228335)
(0.312768 -0.00390616 0.000207827)
(0.312583 -0.00416417 0.000181771)
(0.312387 -0.00438333 0.00015096)
(0.312144 -0.00456309 0.000116154)
(0.311828 -0.00470381 7.77989e-05)
(0.311419 -0.00480621 3.5744e-05)
(0.310899 -0.00487126 -1.06299e-05)
(0.310245 -0.0048994 -6.24954e-05)
(0.309429 -0.00489076 -0.000120067)
(0.308413 -0.00484626 -0.000183449)
(0.307156 -0.00476613 -0.000252989)
(0.305608 -0.00465135 -0.000326817)
(0.303717 -0.00450337 -0.000403666)
(0.301433 -0.00432419 -0.00048008)
(0.298713 -0.00411735 -0.000553404)
(0.295527 -0.00388641 -0.000622348)
(0.291851 -0.00363448 -0.000687166)
(0.287669 -0.00336345 -0.000749206)
(0.282965 -0.00307511 -0.000804423)
(0.277718 -0.00278718 -0.000831494)
(0.271875 -0.00250726 -0.00086022)
(0.265381 -0.00223312 -0.000893437)
(0.258172 -0.00196403 -0.000931102)
(0.250174 -0.00169984 -0.000972171)
(0.241307 -0.00144085 -0.00101375)
(0.231485 -0.00118814 -0.00104939)
(0.220615 -0.000944389 -0.00106664)
(0.208601 -0.000715252 -0.00104455)
(0.195348 -0.000509624 -0.000952748)
(0.180783 -0.000321328 -0.000750529)
(0.164886 -0.000174533 -0.000353489)
(0.147658 -0.000212078 0.000211842)
(0.129163 -0.000249158 0.000450518)
(0.109643 -0.000249563 0.000246986)
(0.0894181 -0.000240875 -8.14639e-05)
(0.068987 -0.000222465 -0.000262516)
(0.0487967 -0.00014637 -0.000302123)
(0.0290283 -5.92044e-05 -0.00024637)
(0.00968772 -6.6595e-06 -0.000109594)
(0.340814 -0.000255776 0.000423402)
(0.340557 -0.000756396 0.000426833)
(0.340114 -0.00123596 0.000433528)
(0.339569 -0.00169508 0.000440698)
(0.339003 -0.00213269 0.000445846)
(0.338481 -0.00254656 0.00044675)
(0.33804 -0.00293369 0.000441696)
(0.337693 -0.00329074 0.00042957)
(0.337428 -0.00361436 0.000409877)
(0.337217 -0.00390163 0.000382744)
(0.337024 -0.00415025 0.000348743)
(0.336809 -0.00435881 0.000308865)
(0.336537 -0.00452687 0.000264091)
(0.336177 -0.0046548 0.000215048)
(0.335706 -0.00474337 0.000161677)
(0.335101 -0.0047936 0.000103344)
(0.334338 -0.00480585 3.87083e-05)
(0.333383 -0.00478014 -3.23859e-05)
(0.332201 -0.00471755 -0.000110071)
(0.330749 -0.0046181 -0.000194698)
(0.328979 -0.00448259 -0.00028398)
(0.326842 -0.00431206 -0.000376588)
(0.324293 -0.00410801 -0.000468396)
(0.321291 -0.00387379 -0.000556293)
(0.317808 -0.00361307 -0.000638815)
(0.313821 -0.00333008 -0.000716079)
(0.309312 -0.0030301 -0.000789185)
(0.304262 -0.00271823 -0.000858237)
(0.298647 -0.00239625 -0.000922698)
(0.292433 -0.00206443 -0.000989871)
(0.285577 -0.00172682 -0.00106067)
(0.278025 -0.00138668 -0.00113308)
(0.269716 -0.00104856 -0.00120334)
(0.260579 -0.000719352 -0.00126537)
(0.25053 -0.000408636 -0.00130957)
(0.239472 -0.000128313 -0.00132108)
(0.227291 0.000107876 -0.00127835)
(0.213858 0.000284428 -0.0011534)
(0.199037 0.000400736 -0.000914073)
(0.182725 0.000519025 -0.000519317)
(0.164886 0.000353241 0.000174253)
(0.145397 9.34701e-05 0.000609042)
(0.12424 3.316e-05 0.000368914)
(0.101716 -2.82318e-06 -8.47121e-05)
(0.0785509 -8.84047e-05 -0.000331937)
(0.0555158 -9.2835e-05 -0.000384576)
(0.0329741 -3.93936e-05 -0.00031684)
(0.0109818 -4.39957e-06 -0.000143725)
(0.362035 -0.000254885 0.000525365)
(0.361783 -0.000753387 0.000529438)
(0.361349 -0.00122985 0.000536177)
(0.360816 -0.00168447 0.000543114)
(0.360264 -0.00211596 0.000547423)
(0.359755 -0.00252203 0.000546589)
(0.359325 -0.00289972 0.000538665)
(0.358983 -0.00324582 0.000522371)
(0.358718 -0.00355711 0.00049713)
(0.358499 -0.00383082 0.000463073)
(0.358289 -0.00406477 0.00042085)
(0.358046 -0.00425762 0.000371607)
(0.357732 -0.00440894 0.000316502)
(0.357314 -0.0045191 0.000256302)
(0.356765 -0.00458883 0.000190998)
(0.35606 -0.00461916 0.000119884)
(0.35517 -0.00461036 4.13568e-05)
(0.354062 -0.00456235 -4.46585e-05)
(0.3527 -0.00447636 -0.000138292)
(0.351043 -0.00435223 -0.000240185)
(0.349045 -0.00419072 -0.00034769)
(0.346664 -0.00399263 -0.000459635)
(0.343858 -0.00375908 -0.000571196)
(0.340593 -0.00349344 -0.000678697)
(0.33684 -0.00319957 -0.000780218)
(0.33258 -0.0028823 -0.000875186)
(0.327795 -0.00254783 -0.000963805)
(0.322467 -0.00220122 -0.00104542)
(0.316576 -0.00184195 -0.00111898)
(0.310097 -0.00147091 -0.00119221)
(0.302995 -0.00109484 -0.00126644)
(0.295226 -0.000721076 -0.00133908)
(0.286734 -0.000358674 -0.00140494)
(0.277453 -1.89685e-05 -0.00145587)
(0.267299 0.000284728 -0.00147985)
(0.256171 0.000538481 -0.00145965)
(0.243947 0.000728978 -0.00137205)
(0.230472 0.000842594 -0.00118907)
(0.215556 0.000879987 -0.000880332)
(0.199037 0.000913774 -0.000401076)
(0.180783 0.000750272 0.000320998)
(0.16058 0.000405847 0.000843647)
(0.138152 0.00030445 0.00060025)
(0.113641 0.000266907 3.54776e-05)
(0.0879285 9.23104e-05 -0.000298318)
(0.0621364 -1.3171e-05 -0.000389081)
(0.0368684 -1.02115e-05 -0.000334908)
(0.0122596 -1.26095e-06 -0.000156146)
(0.38073 -0.000250324 0.000613915)
(0.380485 -0.000739612 0.000617911)
(0.380064 -0.00120635 0.000624422)
(0.379547 -0.00165033 0.000630759)
(0.379013 -0.00207002 0.000633801)
(0.378519 -0.00246298 0.000630781)
(0.3781 -0.00282622 0.000619541)
(0.377762 -0.00315657 0.000598647)
(0.377491 -0.00345088 0.000567433)
(0.377257 -0.00370649 0.000526019)
(0.37702 -0.00392126 0.000475107)
(0.376737 -0.00409388 0.000415976)
(0.376367 -0.0042239 0.000349933)
(0.375877 -0.00431162 0.000277859)
(0.375235 -0.00435768 0.000199787)
(0.374412 -0.00436316 0.000114922)
(0.37338 -0.00432823 2.13404e-05)
(0.372105 -0.00425279 -8.091e-05)
(0.37055 -0.00413835 -0.000191948)
(0.368679 -0.0039847 -0.000312838)
(0.366451 -0.00379285 -0.000440499)
(0.363829 -0.00356361 -0.000574145)
(0.360779 -0.00329799 -0.000708063)
(0.357269 -0.00299958 -0.000837849)
(0.353277 -0.00267258 -0.000960935)
(0.348783 -0.00232244 -0.00107585)
(0.343773 -0.0019561 -0.00118225)
(0.338232 -0.00157924 -0.00128063)
(0.332142 -0.00119352 -0.00137113)
(0.325483 -0.000802676 -0.00145837)
(0.318225 -0.000415296 -0.0015418)
(0.310327 -4.14075e-05 -0.00161695)
(0.301737 0.000307379 -0.00167623)
(0.292389 0.000618052 -0.00170887)
(0.282198 0.000876974 -0.00170064)
(0.271059 0.00107168 -0.00163342)
(0.258843 0.00119229 -0.00148479)
(0.245389 0.00122907 -0.00122945)
(0.230472 0.00118873 -0.000842982)
(0.213858 0.0011531 -0.000284815)
(0.195348 0.00095249 0.000509244)
(0.174594 0.000590279 0.00108929)
(0.151124 0.000482616 0.00086644)
(0.1249 0.000476798 0.000242808)
(0.0968705 0.000258309 -0.000165712)
(0.0684834 6.26899e-05 -0.000307265)
(0.040611 1.60383e-05 -0.000290483)
(0.013489 1.16387e-06 -0.000141973)
(0.39743 -0.00024277 0.000708319)
(0.397194 -0.000717017 0.000712061)
(0.396789 -0.00116858 0.000718129)
(0.396292 -0.00159688 0.000723553)
(0.395777 -0.00200008 0.000724909)
(0.395299 -0.00237552 0.000719183)
(0.394889 -0.00272011 0.000704013)
(0.39455 -0.00303064 0.000677811)
(0.394268 -0.00330398 0.000639823)
(0.39401 -0.00353748 0.00059016)
(0.393735 -0.00372903 0.000529562)
(0.393399 -0.00387724 0.000459431)
(0.392961 -0.00398161 0.000381213)
(0.392382 -0.00404233 0.000295899)
(0.39163 -0.00405996 0.000203579)
(0.390675 -0.0040357 0.00010338)
(0.389486 -0.00396971 -6.99074e-06)
(0.388029 -0.00386194 -0.000127262)
(0.386272 -0.00371451 -0.000257497)
(0.384182 -0.00352739 -0.000399311)
(0.381724 -0.00330233 -0.000548921)
(0.378869 -0.00304057 -0.000706174)
(0.375588 -0.00274331 -0.000864245)
(0.371857 -0.00241471 -0.00101787)
(0.367657 -0.00205936 -0.00116369)
(0.362971 -0.00168334 -0.00129903)
(0.357784 -0.00129484 -0.00142284)
(0.352084 -0.000900897 -0.00153678)
(0.345856 -0.000505966 -0.00164154)
(0.339079 -0.000116405 -0.00173833)
(0.331725 0.000257831 -0.00182402)
(0.323756 0.000605356 -0.00189187)
(0.315121 0.000913848 -0.00193204)
(0.305752 0.00117067 -0.00193185)
(0.295563 0.0013639 -0.00187604)
(0.284446 0.0014841 -0.00174719)
(0.272263 0.00152543 -0.00152583)
(0.258843 0.00148442 -0.00119271)
(0.243947 0.00137173 -0.000729407)
(0.227292 0.00127806 -0.000108309)
(0.208601 0.0010443 0.00071482)
(0.187397 0.00068032 0.00131018)
(0.163028 0.000578561 0.00111827)
(0.135298 0.000607058 0.000492971)
(0.105183 0.000382726 3.9404e-05)
(0.0744077 0.000119508 -0.00015339)
(0.0441117 3.3145e-05 -0.000191117)
(0.0146402 2.26303e-06 -0.0001043)
(0.41254 -0.00023271 0.000805036)
(0.412314 -0.000687049 0.000808473)
(0.411927 -0.00111887 0.000813873)
(0.411451 -0.00152722 0.00081804)
(0.410955 -0.0019099 0.000817241)
(0.410492 -0.00226399 0.000808211)
(0.410087 -0.00258624 0.000788389)
(0.409743 -0.00287333 0.000756034)
(0.409441 -0.00312206 0.000710309)
(0.40915 -0.00332975 0.000651308)
(0.408826 -0.00349422 0.000579802)
(0.408424 -0.00361399 0.000497305)
(0.407902 -0.00368843 0.000405398)
(0.407221 -0.00371765 0.000305189)
(0.406344 -0.00370216 0.000196866)
(0.405241 -0.00364341 7.95111e-05)
(0.403881 -0.00354168 -4.96067e-05)
(0.402233 -0.0033972 -0.000189831)
(0.400267 -0.00321314 -0.000341024)
(0.397956 -0.00298994 -0.00050539)
(0.395271 -0.00273071 -0.000677943)
(0.392192 -0.00243767 -0.000859182)
(0.388696 -0.00211291 -0.00104144)
(0.384768 -0.00176124 -0.00121884)
(0.380391 -0.00138742 -0.00138721)
(0.37555 -0.000997771 -0.00154222)
(0.37023 -0.000601585 -0.00168124)
(0.364417 -0.000207341 -0.0018064)
(0.358096 0.000178096 -0.00191838)
(0.351246 0.000546471 -0.00201563)
(0.34384 0.000887059 -0.00209258)
(0.335839 0.00118826 -0.00214044)
(0.327192 0.0014384 -0.00214778)
(0.31783 0.00162659 -0.00210102)
(0.307666 0.00174379 -0.00198515)
(0.296586 0.0017842 -0.0017846)
(0.284446 0.00174682 -0.00148453)
(0.271059 0.00163308 -0.00107214)
(0.256172 0.00145935 -0.000538951)
(0.239472 0.00132081 0.000127835)
(0.220616 0.00106641 0.000943908)
(0.199003 0.000707637 0.00151474)
(0.173819 0.000609135 0.00135204)
(0.144742 0.00066448 0.00076286)
(0.112755 0.000460398 0.00029135)
(0.0798147 0.000153333 5.10551e-05)
(0.047311 3.97607e-05 -5.22581e-05)
(0.0156931 1.96082e-06 -4.99201e-05)
(0.426366 -0.000220518 0.000901194)
(0.426152 -0.000650793 0.000904227)
(0.425782 -0.00105893 0.000908725)
(0.425327 -0.00144358 0.000911274)
(0.42485 -0.00180218 0.000907817)
(0.424398 -0.00213147 0.000894834)
(0.423994 -0.00242797 0.000869568)
(0.423638 -0.0026882 0.000830127)
(0.42331 -0.00290886 0.000775587)
(0.422975 -0.00308714 0.00070602)
(0.42259 -0.00322074 0.000622212)
(0.42211 -0.00330805 0.000525784)
(0.42149 -0.00334832 0.000418453)
(0.42069 -0.00334157 0.000301468)
(0.419673 -0.00328838 0.000175179)
(0.418409 -0.00319069 3.86829e-05)
(0.416867 -0.00304907 -0.000111289)
(0.41502 -0.00286433 -0.000273319)
(0.412842 -0.00264114 -0.000446701)
(0.410311 -0.00238079 -0.00063386)
(0.407407 -0.00208815 -0.000828321)
(0.404113 -0.00176741 -0.00103071)
(0.400419 -0.00142318 -0.00123393)
(0.396314 -0.00106027 -0.00143253)
(0.391787 -0.000682827 -0.00162179)
(0.386824 -0.000296207 -0.00179538)
(0.381408 9.03251e-05 -0.00194756)
(0.37552 0.000467573 -0.00207877)
(0.369141 0.000825958 -0.00218964)
(0.362252 0.00115606 -0.00227706)
(0.354823 0.00144714 -0.00233361)
(0.346816 0.00168827 -0.00234903)
(0.338177 0.00186942 -0.00231114)
(0.328838 0.00198229 -0.00220653)
(0.318707 0.00202128 -0.00202165)
(0.307666 0.0019848 -0.00174421)
(0.295564 0.00187572 -0.00136435)
(0.282198 0.00170034 -0.00087746)
(0.2673 0.00147958 -0.000285235)
(0.250531 0.00130933 0.000408115)
(0.231486 0.00104918 0.00118761)
(0.209465 0.000698886 0.00170812)
(0.183517 0.000591214 0.00157308)
(0.153217 0.000666537 0.00103911)
(0.11955 0.000498606 0.000567726)
(0.0846691 0.000167391 0.000283887)
(0.0501843 3.76428e-05 0.000108911)
(0.0166391 5.5956e-07 1.35923e-05)
(0.439146 -0.000206473 0.000995704)
(0.438942 -0.000609056 0.000998203)
(0.43859 -0.000990021 0.00100155)
(0.438155 -0.00134761 0.00100209)
(0.437695 -0.00167882 0.000995415)
(0.437251 -0.00198005 0.000977756)
(0.436843 -0.00224756 0.000946155)
(0.436467 -0.00247762 0.000898566)
(0.436103 -0.00266677 0.000833972)
(0.435713 -0.00281205 0.000752419)
(0.435256 -0.00291098 0.000654685)
(0.434683 -0.0029618 0.000542507)
(0.433951 -0.00296365 0.000417753)
(0.433018 -0.00291657 0.000281842)
(0.431848 -0.00282137 0.000135377)
(0.43041 -0.00268076 -2.24031e-05)
(0.428678 -0.00249585 -0.000195191)
(0.426627 -0.00226835 -0.000379985)
(0.424237 -0.00200449 -0.000575051)
(0.421489 -0.00170735 -0.000782247)
(0.418375 -0.0013834 -0.000996033)
(0.414881 -0.00103989 -0.00122612)
(0.411004 -0.000688234 -0.00145348)
(0.406741 -0.00033074 -0.00167093)
(0.402084 3.04052e-05 -0.00187342)
(0.397023 0.000392628 -0.00205379)
(0.39154 0.000750523 -0.00220787)
(0.385606 0.00109616 -0.00234018)
(0.379197 0.00141348 -0.00244183)
(0.372293 0.00169234 -0.00250908)
(0.364863 0.00192301 -0.00253399)
(0.356865 0.00209617 -0.00250578)
(0.348247 0.00220408 -0.00241244)
(0.338936 0.0022414 -0.00224173)
(0.328838 0.00220621 -0.00198268)
(0.317831 0.00210072 -0.00162703)
(0.305753 0.00193158 -0.00117116)
(0.29239 0.00170862 -0.00061857)
(0.277454 0.00145565 1.84266e-05)
(0.26058 0.00126517 0.000718792)
(0.241308 0.00101358 0.00144028)
(0.218859 0.000672547 0.00189779)
(0.192182 0.000540075 0.00178923)
(0.160765 0.000632263 0.0013148)
(0.125593 0.000509053 0.000851709)
(0.0889823 0.000167754 0.000526741)
(0.0527363 2.96558e-05 0.00027773)
(0.0174794 -1.54652e-06 7.9844e-05)
(0.451063 -0.00019078 0.00108757)
(0.450869 -0.000562425 0.00108939)
(0.450534 -0.000913039 0.00109129)
(0.450116 -0.00124043 0.00108937)
(0.449669 -0.00154115 0.00107885)
(0.449228 -0.00181118 0.00105569)
(0.44881 -0.00204648 0.00101673)
(0.448407 -0.00224308 0.000959769)
(0.447997 -0.00239726 0.00088369)
(0.447542 -0.00250589 0.000788498)
(0.446999 -0.00256629 0.000674958)
(0.44632 -0.00257654 0.000544938)
(0.445461 -0.0025358 0.000400479)
(0.444381 -0.00244429 0.000243194)
(0.443045 -0.00230324 7.41545e-05)
(0.441424 -0.00211638 -0.000106821)
(0.439495 -0.00188535 -0.000302965)
(0.437236 -0.00161369 -0.000508972)
(0.434637 -0.00130814 -0.00072403)
(0.431681 -0.000976963 -0.000963097)
(0.428371 -0.000633665 -0.00120423)
(0.424702 -0.000289205 -0.00144314)
(0.420669 4.8256e-05 -0.00167749)
(0.416268 0.000381643 -0.00190339)
(0.411494 0.000711868 -0.00211583)
(0.406341 0.00103869 -0.00230637)
(0.400798 0.00135764 -0.00246205)
(0.394836 0.00165563 -0.0025782)
(0.388419 0.00192333 -0.00266252)
(0.381516 0.00214325 -0.00270014)
(0.374098 0.00230774 -0.00268341)
(0.366121 0.00241021 -0.00260231)
(0.357529 0.00244574 -0.002446)
(0.348247 0.00241219 -0.00220442)
(0.338178 0.0023109 -0.00186983)
(0.327193 0.00214756 -0.00143886)
(0.315122 0.00193184 -0.000914358)
(0.301739 0.00167604 -0.000307924)
(0.286736 0.00140477 0.000358101)
(0.269718 0.00120319 0.00104796)
(0.250175 0.000972048 0.00169923)
(0.227275 0.000639494 0.0020914)
(0.199901 0.000468554 0.00200689)
(0.167463 0.000577849 0.00158639)
(0.130943 0.000502952 0.00113197)
(0.0927959 0.000160481 0.000766529)
(0.0549908 1.85641e-05 0.000443712)
(0.0182214 -4.01316e-06 0.000144365)
(0.462261 -0.000173583 0.00117563)
(0.462077 -0.000511304 0.0011766)
(0.461757 -0.000828604 0.00117672)
(0.461353 -0.00112282 0.00117182)
(0.460915 -0.00139003 0.00115671)
(0.460472 -0.00162578 0.00112709)
(0.460035 -0.00182567 0.00107959)
(0.459596 -0.00198545 0.00101184)
(0.459129 -0.00210113 0.00092261)
(0.458597 -0.00216938 0.000811873)
(0.457955 -0.00218733 0.000680368)
(0.457156 -0.00215295 0.000530115)
(0.456156 -0.00206562 0.000363353)
(0.454915 -0.00192599 0.00018214)
(0.453402 -0.00173592 -1.13572e-05)
(0.45159 -0.00149977 -0.000215941)
(0.449458 -0.00121977 -0.000433792)
(0.446993 -0.000905104 -0.000669935)
(0.444191 -0.000568043 -0.000918146)
(0.441052 -0.000228318 -0.00116664)
(0.437571 0.000102827 -0.00141367)
(0.43375 0.000421736 -0.00164881)
(0.429582 0.0007304 -0.00188176)
(0.425063 0.00103242 -0.0021106)
(0.420187 0.0013284 -0.00232884)
(0.414949 0.00161634 -0.00252712)
(0.409339 0.00189194 -0.00268986)
(0.403343 0.00213819 -0.00279278)
(0.396924 0.00234449 -0.002842)
(0.390035 0.00250299 -0.00284141)
(0.382637 0.00260056 -0.00277504)
(0.374686 0.0026341 -0.00263426)
(0.366121 0.00260214 -0.00241047)
(0.356866 0.00250562 -0.00209652)
(0.346817 0.00234887 -0.00168869)
(0.335841 0.00214029 -0.00118874)
(0.323758 0.00189174 -0.000605885)
(0.310329 0.00161684 4.08402e-05)
(0.295228 0.00133898 0.000720479)
(0.278027 0.001133 0.00138606)
(0.258173 0.000931032 0.00196339)
(0.234807 0.000605511 0.00229454)
(0.20677 0.000386908 0.00222962)
(0.173402 0.000515196 0.001852)
(0.135677 0.000488887 0.00140177)
(0.0961652 0.00015025 0.000995277)
(0.0569807 6.47762e-06 0.000600528)
(0.0188761 -6.58331e-06 0.000204563)
(0.472855 -0.000154974 0.00125865)
(0.472679 -0.000455954 0.00125856)
(0.472371 -0.000737104 0.00125648)
(0.471978 -0.000995265 0.00124797)
(0.471542 -0.00122599 0.00122742)
(0.471089 -0.00142435 0.00119023)
(0.470626 -0.0015856 0.00113282)