/*--------------------------------*- C++ -*----------------------------------*\
| =========                 |                                                 |
| \\      /  F ield         | OpenFOAM: The Open Source CFD Toolbox           |
|  \\    /   O peration     | Version:  2412                                  |
|   \\  /    A nd           | Website:  www.openfoam.com                      |
|    \\/     M anipulation  |                                                 |
\*---------------------------------------------------------------------------*/
FoamFile
{
    version     2.0;
    format      ascii;
    arch        "LSB;label=32;scalar=64";
    class       volVectorField;
    location    "2130";
    object      vorticity;
}
// * * * * * * * * * * * * * * * * * * * * * * * * * * * * * * * * * * * * * //

dimensions      [0 0 -1 0 0 0 0];

internalField   nonuniform List<vector> 
2304
(
(0.0165778 15.5572 0.000540063)
(0.0493843 15.5396 0.0015288)
(0.0818038 15.5088 0.00227559)
(0.114203 15.4706 0.00270152)
(0.14658 15.4303 0.00280187)
(0.178641 15.3926 0.00263138)
(0.20991 15.3603 0.00228217)
(0.239834 15.3345 0.00186181)
(0.26787 15.3149 0.00147536)
(0.293557 15.3 0.00120863)
(0.316552 15.2879 0.00111655)
(0.336652 15.2762 0.00121417)
(0.35378 15.2631 0.00147901)
(0.367944 15.2474 0.0018705)
(0.379152 15.2283 0.00235987)
(0.387379 15.2054 0.00295621)
(0.392498 15.1781 0.00372729)
(0.394309 15.1449 0.00478115)
(0.392723 15.1039 0.00624533)
(0.3876 15.0525 0.00828405)
(0.378848 14.9868 0.0110524)
(0.366525 14.9032 0.0146752)
(0.350859 14.7975 0.0192285)
(0.332331 14.6662 0.0247132)
(0.311619 14.5064 0.0310565)
(0.289644 14.3165 0.0380465)
(0.267456 14.0968 0.0453257)
(0.245704 13.8499 0.0527888)
(0.222406 13.5773 0.061372)
(0.195738 13.2726 0.0720017)
(0.165852 12.93 0.0848796)
(0.132815 12.5434 0.100352)
(0.0968649 12.1062 0.118902)
(0.0587121 11.6107 0.140913)
(0.0198572 11.0498 0.166409)
(-0.0171985 10.4183 0.194799)
(-0.048959 9.71524 0.224666)
(-0.0713591 8.94606 0.253778)
(-0.0808089 8.12397 0.279525)
(-0.0757314 7.26879 0.299887)
(-0.0587553 6.4024 0.314719)
(-0.0372088 5.54128 0.326112)
(-0.0188901 4.69188 0.336922)
(-0.00736588 3.85316 0.349225)
(-0.00191648 3.02091 0.36447)
(-0.000156871 2.18894 0.384905)
(6.09245e-05 1.34748 0.416492)
(-7.84e-08 0.47838 0.47838)
(0.0152439 15.356 0.00164223)
(0.0453292 15.3386 0.00464779)
(0.07482 15.3083 0.0069179)
(0.10396 15.2706 0.00821407)
(0.132734 15.231 0.00852117)
(0.160913 15.1937 0.00800585)
(0.188135 15.1617 0.00694788)
(0.213981 15.1361 0.00567428)
(0.238038 15.1165 0.00450435)
(0.259955 15.1016 0.00369892)
(0.279471 15.0892 0.00342521)
(0.296427 15.0772 0.00372924)
(0.310761 15.0638 0.00454273)
(0.322473 15.0476 0.0057424)
(0.331574 15.0281 0.00724064)
(0.338056 15.0047 0.00906488)
(0.341852 14.9768 0.0114211)
(0.342863 14.943 0.0146353)
(0.341038 14.9014 0.0190958)
(0.336314 14.8493 0.0253028)
(0.328691 14.7832 0.0337253)
(0.31827 14.6993 0.0447414)
(0.305274 14.5936 0.0585814)
(0.290084 14.4627 0.0752464)
(0.273175 14.3038 0.0945211)
(0.255083 14.1152 0.115777)
(0.236277 13.8971 0.137929)
(0.216952 13.6518 0.160638)
(0.196443 13.3806 0.186751)
(0.174202 13.0775 0.219069)
(0.150207 12.7367 0.258167)
(0.124532 12.3526 0.30509)
(0.0974665 11.9188 0.361321)
(0.0696201 11.4279 0.428056)
(0.0420411 10.8729 0.505436)
(0.0162572 10.2482 0.591782)
(-0.00582507 9.55235 0.682932)
(-0.0222331 8.78954 0.772177)
(-0.0314824 7.97168 0.851443)
(-0.0331809 7.11791 0.914168)
(-0.0286633 6.25102 0.959459)
(-0.0208205 5.38936 0.993638)
(-0.0127035 4.54075 1.02565)
(-0.00635134 3.70486 1.06181)
(-0.00245454 2.87845 1.10581)
(-0.000596671 2.05751 1.16188)
(4.43602e-07 1.23773 1.23773)
(-6.09733e-05 0.416492 1.34748)
(0.013677 14.9362 0.00276411)
(0.0405711 14.9202 0.00782282)
(0.0666517 14.8922 0.0116457)
(0.0920336 14.8573 0.0138333)
(0.116689 14.8205 0.0143604)
(0.140465 14.786 0.0135078)
(0.163125 14.7562 0.0117456)
(0.184404 14.7322 0.00962354)
(0.204035 14.7137 0.00767855)
(0.221792 14.6993 0.00634948)
(0.237501 14.6872 0.00591847)
(0.251053 14.6753 0.00646451)
(0.262399 14.6618 0.00787486)
(0.271532 14.6455 0.00994438)
(0.278462 14.6258 0.0125271)
(0.283202 14.6021 0.0156702)
(0.285754 14.5738 0.0197198)
(0.286127 14.5395 0.0252185)
(0.284316 14.4973 0.0328186)
(0.280335 14.4449 0.0433605)
(0.27428 14.3789 0.0576249)
(0.266294 14.2959 0.0762434)
(0.256581 14.1924 0.0995966)
(0.245405 14.0651 0.127681)
(0.23302 13.9118 0.160155)
(0.219555 13.7307 0.196045)
(0.204873 13.5215 0.233625)
(0.188802 13.2854 0.272317)
(0.171978 13.0227 0.316786)
(0.155119 12.7284 0.371609)
(0.138042 12.3976 0.437692)
(0.120775 12.0254 0.516802)
(0.103589 11.6061 0.611462)
(0.0868912 11.1329 0.723746)
(0.0711454 10.5993 0.854079)
(0.0567729 9.99981 0.999997)
(0.0440036 9.3315 1.15501)
(0.0327248 8.59599 1.30822)
(0.0224536 7.80136 1.44581)
(0.0127547 6.9635 1.55545)
(0.00391491 6.10516 1.63395)
(-0.00242048 5.24797 1.69148)
(-0.00461959 4.40326 1.74373)
(-0.00351005 3.57333 1.80153)
(-0.00150441 2.75723 1.8701)
(1.62838e-06 1.95356 1.95356)
(0.000598581 1.16187 2.05751)
(0.000157321 0.384905 2.18894)
(0.0115445 13.8837 0.00379181)
(0.0341436 13.871 0.0107316)
(0.0557546 13.8488 0.0159766)
(0.0763588 13.8213 0.0189814)
(0.0959203 13.7923 0.0197152)
(0.114367 13.7652 0.0185643)
(0.131603 13.7419 0.0161739)
(0.147525 13.7231 0.013299)
(0.162027 13.7086 0.0106765)
(0.175014 13.6973 0.00890934)
(0.186407 13.6874 0.0083865)
(0.196148 13.6775 0.00922095)
(0.204201 13.6659 0.0112661)
(0.210551 13.6516 0.0142509)
(0.21521 13.6338 0.0179853)
(0.218213 13.612 0.0225432)
(0.219636 13.5854 0.0284047)
(0.21961 13.5527 0.0363216)
(0.218159 13.5122 0.0471674)
(0.215345 13.4619 0.0620671)
(0.211377 13.3993 0.0820862)
(0.206429 13.3218 0.108076)
(0.200682 13.2267 0.14054)
(0.194294 13.1115 0.179459)
(0.187325 12.9747 0.22441)
(0.179552 12.815 0.274279)
(0.170216 12.6313 0.327117)
(0.158642 12.4224 0.382329)
(0.146903 12.1867 0.445758)
(0.137227 11.9214 0.523176)
(0.12911 11.6233 0.615917)
(0.122537 11.2887 0.726517)
(0.117797 10.9129 0.858448)
(0.115108 10.4909 1.01464)
(0.114313 10.0176 1.19604)
(0.114607 9.48788 1.40007)
(0.114268 8.89719 1.61913)
(0.110531 8.24258 1.83958)
(0.0999116 7.52422 2.04265)
(0.0797535 6.74859 2.20877)
(0.0514112 5.93326 2.32902)
(0.0234097 5.10247 2.41489)
(0.00581921 4.27399 2.48864)
(-3.26472e-05 3.45647 2.5661)
(3.00879e-06 2.65431 2.65432)
(0.00150909 1.8701 2.75723)
(0.00245779 1.10581 2.87845)
(0.00191811 0.36447 3.02091)
(0.0087533 12.0244 0.00454346)
(0.0257881 12.0163 0.0128517)
(0.0418023 12.0023 0.0191163)
(0.0566897 11.9851 0.0226896)
(0.0704042 11.9673 0.0235424)
(0.082937 11.9509 0.0221438)
(0.0943039 11.9371 0.0192736)
(0.104528 11.9262 0.0158437)
(0.113631 11.9179 0.0127423)
(0.121624 11.9115 0.0106959)
(0.128503 11.9056 0.0101749)
(0.134255 11.8992 0.0113238)
(0.138859 11.8911 0.0139854)
(0.142304 11.8804 0.0178607)
(0.144603 11.8663 0.0227511)
(0.14581 11.848 0.0287731)
(0.146035 11.8248 0.0365232)
(0.145461 11.7954 0.0469261)
(0.144136 11.7584 0.0609788)
(0.142161 11.7125 0.0799643)
(0.139778 11.6561 0.105148)
(0.137169 11.5878 0.137514)
(0.134489 11.5059 0.177625)
(0.131833 11.4094 0.225429)
(0.129185 11.2975 0.280472)
(0.126178 11.1694 0.341781)
(0.121534 11.0239 0.407892)
(0.11351 10.8577 0.478786)
(0.105765 10.6664 0.560213)
(0.102541 10.4508 0.657964)
(0.102475 10.2097 0.774132)
(0.105588 9.94096 0.911992)
(0.112352 9.64195 1.07564)
(0.12304 9.31017 1.26866)
(0.137278 8.94278 1.49273)
(0.153665 8.53611 1.74626)
(0.1694 8.08487 2.02269)
(0.179889 7.58161 2.30906)
(0.178359 7.01691 2.58529)
(0.156343 6.38194 2.82502)
(0.10963 5.67778 3.00822)
(0.0533336 4.92317 3.14073)
(0.0139433 4.141 3.24783)
(4.20453e-06 3.34987 3.34987)
(4.00613e-05 2.5661 3.45647)
(0.00351638 1.80153 3.57333)
(0.00635642 1.06181 3.70486)
(0.00736947 0.349225 3.85316)
(0.00585998 9.83796 0.00497234)
(0.0171704 9.83367 0.0140474)
(0.0275686 9.82652 0.0208568)
(0.0369214 9.81798 0.0247016)
(0.0451754 9.80948 0.0255616)
(0.0523544 9.80205 0.0239653)
(0.0585292 9.79623 0.020782)
(0.0637879 9.79206 0.0170248)
(0.0682152 9.78917 0.0136771)
(0.0718772 9.78688 0.0115419)
(0.0748167 9.7844 0.0111403)
(0.0770556 9.78086 0.0126453)
(0.0785987 9.77543 0.0159152)
(0.0794479 9.76729 0.020667)
(0.0796215 9.75559 0.0267331)
(0.0791653 9.73946 0.0342869)
(0.0781604 9.71791 0.0440091)
(0.0766933 9.68993 0.0569165)
(0.074889 9.65456 0.0740528)
(0.0729056 9.61088 0.0967453)
(0.0708652 9.55817 0.126323)
(0.0688838 9.4958 0.163797)
(0.067044 9.42337 0.209719)
(0.0653345 9.34066 0.263999)
(0.0636811 9.24761 0.326194)
(0.061792 9.14403 0.39561)
(0.0580439 9.02888 0.471716)
(0.0484493 8.89939 0.555868)
(0.0402154 8.75229 0.652362)
(0.0390744 8.58872 0.765681)
(0.0412034 8.40889 0.899125)
(0.0465206 8.21234 1.05642)
(0.0554153 7.99885 1.24179)
(0.0680488 7.76848 1.45903)
(0.0841449 7.52092 1.71061)
(0.102984 7.25441 1.99662)
(0.123421 6.96428 2.31349)
(0.143596 6.64143 2.65252)
(0.159169 6.27155 2.99842)
(0.157871 5.83462 3.32549)
(0.118854 5.3072 3.60221)
(0.0518229 4.68746 3.81858)
(4.59023e-06 3.9924 3.9924)
(-0.0139341 3.24782 4.141)
(-0.00581028 2.48863 4.27399)
(0.00462789 1.74373 4.40326)
(0.012711 1.02565 4.54075)
(0.0188965 0.336922 4.69188)
(0.00343453 7.92408 0.00519738)
(0.00998893 7.92208 0.014648)
(0.0158327 7.91904 0.0216836)
(0.0208434 7.9157 0.0255974)
(0.0249636 7.91278 0.0263796)
(0.0282157 7.9107 0.024606)
(0.0306698 7.90959 0.0212101)
(0.0324144 7.90925 0.017273)
(0.0335365 7.90927 0.0138393)
(0.0341106 7.90909 0.0117601)
(0.0341937 7.90808 0.0115917)
(0.0338251 7.90557 0.0135392)
(0.0330251 7.90083 0.0174993)
(0.0318 7.89307 0.0232381)
(0.0301552 7.88135 0.0306468)
(0.0281047 7.86472 0.0399596)
(0.0256743 7.84217 0.0519035)
(0.022873 7.81285 0.0675051)
(0.0198084 7.77616 0.0878319)
(0.0166027 7.73149 0.114204)
(0.0132679 7.67863 0.147894)
(0.00982413 7.61764 0.189866)
(0.00625342 7.54877 0.240626)
(0.00242144 7.47234 0.300061)
(-0.00181423 7.38866 0.367779)
(-0.00649225 7.29774 0.443355)
(-0.0114846 7.19884 0.526719)
(-0.0170046 7.09056 0.619268)
(-0.0220803 6.97293 0.725177)
(-0.0273347 6.84635 0.848643)
(-0.032712 6.71226 0.99268)
(-0.0382173 6.57201 1.16096)
(-0.0435897 6.42736 1.35745)
(-0.0481713 6.28021 1.58593)
(-0.0505301 6.13172 1.84958)
(-0.0480819 5.98105 2.15038)
(-0.0371191 5.82377 2.48826)
(-0.0137994 5.65037 2.85968)
(0.0222636 5.4458 3.25666)
(0.0535522 5.19087 3.66546)
(0.0546597 4.85333 4.05513)
(3.5981e-06 4.39691 4.39691)
(-0.0518142 3.81858 4.68746)
(-0.0533235 3.14073 4.92317)
(-0.0233991 2.41489 5.10247)
(0.00243113 1.69147 5.24797)
(0.0208309 0.993637 5.38936)
(0.0372188 0.326112 5.54128)
(0.00166472 6.45277 0.00529093)
(0.00478008 6.45232 0.014872)
(0.00738439 6.45189 0.0219424)
(0.00935772 6.45176 0.0258115)
(0.0106397 6.45213 0.0264842)
(0.0112384 6.45301 0.0245754)
(0.0112045 6.45422 0.0210654)
(0.0106082 6.45545 0.017081)
(0.00952366 6.45627 0.0137061)
(0.00801996 6.45619 0.0118235)
(0.00615555 6.45473 0.0120183)
(0.00397133 6.45133 0.0145331)
(0.00148322 6.44536 0.0193186)
(-0.00131763 6.43604 0.0262096)
(-0.00445452 6.42246 0.0351661)
(-0.00795089 6.40366 0.0464742)
(-0.01181 6.37877 0.0608734)
(-0.016026 6.34714 0.0793564)
(-0.0205586 6.30839 0.102976)
(-0.0253447 6.26234 0.132993)
(-0.03037 6.20922 0.170564)
(-0.0356326 6.14957 0.216564)
(-0.0411644 6.08407 0.271452)
(-0.0471214 6.01336 0.335132)
(-0.0536468 5.9379 0.407317)
(-0.0606498 5.85775 0.487853)
(-0.0669842 5.7724 0.577031)
(-0.0700996 5.68085 0.675962)
(-0.0752062 5.58314 0.788099)
(-0.0864465 5.48223 0.917152)
(-0.100505 5.38064 1.06578)
(-0.116533 5.28091 1.23731)
(-0.133578 5.18566 1.4354)
(-0.149927 5.0972 1.66402)
(-0.162727 5.01673 1.92742)
(-0.167921 4.94331 2.22999)
(-0.16062 4.87252 2.57571)
(-0.135415 4.79501 2.9664)
(-0.0839884 4.69576 3.39811)
(-0.0242652 4.55724 3.86539)
(2.87326e-06 4.36038 4.36038)
(-0.0546534 4.05513 4.85334)
(-0.118846 3.60221 5.3072)
(-0.109619 3.00822 5.67778)
(-0.0513986 2.32902 5.93327)
(-0.0039015 1.63395 6.10516)
(0.0286772 0.959458 6.25102)
(0.0587695 0.314719 6.4024)
(0.000413215 5.32815 0.00527128)
(0.00110714 5.32882 0.0147934)
(0.00143922 5.33017 0.0217729)
(0.001279 5.33214 0.0255387)
(0.000563345 5.33452 0.0261214)
(-0.000713061 5.33699 0.0241649)
(-0.00251465 5.33917 0.0206781)
(-0.00478342 5.34065 0.016812)
(-0.00745244 5.34102 0.0136701)
(-0.010455 5.33989 0.0121528)
(-0.0137328 5.33686 0.0128687)
(-0.0172482 5.33148 0.016101)
(-0.0209959 5.32322 0.0218619)
(-0.025004 5.31137 0.0300613)
(-0.0293219 5.2951 0.0407251)
(-0.0339978 5.27356 0.0541728)
(-0.0390429 5.24606 0.0711291)
(-0.044441 5.21217 0.0925292)
(-0.0501735 5.17177 0.119353)
(-0.056173 5.12509 0.152742)
(-0.0623814 5.07275 0.193711)
(-0.0687517 5.01566 0.243029)
(-0.0752587 4.95481 0.301123)
(-0.0820255 4.89107 0.367949)
(-0.0891684 4.82499 0.443362)
(-0.0966311 4.75678 0.527424)
(-0.103911 4.68634 0.620712)
(-0.110511 4.6134 0.724446)
(-0.119117 4.53806 0.840569)
(-0.130677 4.46357 0.97162)
(-0.143502 4.39241 1.12046)
(-0.156266 4.32689 1.29029)
(-0.167487 4.26904 1.48476)
(-0.175236 4.22033 1.70822)
(-0.177054 4.18128 1.96597)
(-0.170113 4.15094 2.26441)
(-0.151642 4.12617 2.61103)
(-0.119187 4.09982 3.01315)
(-0.0696383 4.05846 3.47322)
(2.23354e-06 3.9855 3.9855)
(0.0242701 3.8654 4.55724)
(-0.0535474 3.66546 5.19087)
(-0.157863 3.32549 5.83462)
(-0.156332 2.82502 6.38194)
(-0.0797388 2.20877 6.74859)
(-0.0127382 1.55545 6.9635)
(0.0331989 0.914168 7.11791)
(0.0757507 0.299887 7.26879)
(-0.000514743 4.45456 0.00517132)
(-0.00161508 4.45592 0.0145003)
(-0.00295599 4.45838 0.0213066)
(-0.00467099 4.4616 0.0249453)
(-0.00682963 4.46506 0.0254783)
(-0.00945152 4.46823 0.0235692)
(-0.012519 4.4706 0.0202409)
(-0.0159895 4.47168 0.0166517)
(-0.0198078 4.47109 0.0139091)
(-0.0239152 4.4685 0.0129217)
(-0.0282598 4.46358 0.0143185)
(-0.032811 4.45598 0.0184237)
(-0.0375749 4.44522 0.0253126)
(-0.0425965 4.43068 0.0349684)
(-0.0479435 4.41165 0.0474722)
(-0.0536796 4.38744 0.0631568)
(-0.0598122 4.35754 0.0827064)
(-0.0663083 4.32177 0.106974)
(-0.0731503 4.28026 0.136821)
(-0.0802408 4.23355 0.173232)
(-0.087462 4.18258 0.217055)
(-0.0947003 4.12854 0.268949)
(-0.101844 4.07267 0.329314)
(-0.10897 4.01599 0.398175)
(-0.116159 3.9592 0.475512)
(-0.123384 3.90268 0.561487)
(-0.130443 3.84668 0.656651)
(-0.137183 3.79174 0.762037)
(-0.144216 3.73864 0.878987)
(-0.151375 3.68884 1.0095)
(-0.157444 3.64385 1.15634)
(-0.161126 3.60506 1.32272)
(-0.161068 3.57352 1.51246)
(-0.155809 3.54979 1.7303)
(-0.143783 3.53377 1.98214)
(-0.123425 3.52462 2.27537)
(-0.0934737 3.5206 2.61979)
(-0.0530199 3.51805 3.02785)
(1.41611e-07 3.50715 3.50714)
(0.0696408 3.47323 4.05846)
(0.0839915 3.39812 4.69576)
(-0.0222607 3.25667 5.44581)
(-0.159163 2.99842 6.27155)
(-0.178347 2.58529 7.01691)
(-0.099895 2.04265 7.52422)
(-0.0224338 1.44581 7.80136)
(0.031505 0.851444 7.97167)
(0.080834 0.279525 8.12397)
(-0.00120142 3.77521 0.00501998)
(-0.00363131 3.77696 0.0140652)
(-0.0062097 3.78006 0.0206455)
(-0.00906964 3.78393 0.0241558)
(-0.0122897 3.78787 0.0246884)
(-0.0159024 3.79117 0.0229192)
(-0.0199066 3.79324 0.0198731)
(-0.0242751 3.79357 0.0167038)
(-0.0289649 3.79179 0.0145124)
(-0.0339281 3.7876 0.0142094)
(-0.0391217 3.78074 0.0164413)
(-0.0445241 3.77091 0.0215721)
(-0.0501519 3.75771 0.0297377)
(-0.0560623 3.7406 0.0409861)
(-0.0623336 3.71902 0.0554384)
(-0.0690349 3.69243 0.0734194)
(-0.0761588 3.66055 0.0955488)
(-0.083642 3.62342 0.122573)
(-0.0914455 3.5814 0.155206)
(-0.0994137 3.53531 0.194247)
(-0.107349 3.48628 0.240362)
(-0.115042 3.43572 0.29408)
(-0.122255 3.38505 0.355779)
(-0.12901 3.33545 0.425559)
(-0.135347 3.28771 0.50352)
(-0.141238 3.24225 0.589884)
(-0.146578 3.19937 0.685094)
(-0.151186 3.15956 0.789982)
(-0.154833 3.12348 0.905797)
(-0.156912 3.09162 1.03442)
(-0.156414 3.06468 1.17845)
(-0.152273 3.04327 1.34114)
(-0.143462 3.0278 1.52648)
(-0.129019 3.01836 1.73951)
(-0.108068 3.01458 1.98659)
(-0.0798345 3.01556 2.27557)
(-0.0437754 3.01996 2.61673)
(-2.60089e-06 3.02584 3.02581)
(0.0530174 3.02788 3.51804)
(0.119187 3.01317 4.09982)
(0.135416 2.96642 4.79501)
(0.0137998 2.8597 5.65038)
(-0.143592 2.65253 6.64144)
(-0.179877 2.30907 7.58162)
(-0.110513 1.83959 8.24258)
(-0.0327017 1.30822 8.59599)
(0.0222606 0.77218 8.78954)
(0.0713907 0.253779 8.94606)
(-0.00171103 3.24276 0.00483358)
(-0.0051283 3.24472 0.0135354)
(-0.00862817 3.24814 0.0198621)
(-0.0123455 3.25226 0.023259)
(-0.0163678 3.25624 0.0238468)
(-0.0207378 3.2593 0.0223085)
(-0.0254676 3.26077 0.0196614)
(-0.0305434 3.26013 0.0170451)
(-0.0359337 3.25703 0.0155476)
(-0.0416014 3.25119 0.0160762)
(-0.0475131 3.24241 0.019292)
(-0.0536557 3.23042 0.0255952)
(-0.0600536 3.21491 0.0351752)
(-0.0667699 3.19545 0.048132)
(-0.0738847 3.1716 0.0646084)
(-0.0814634 3.14305 0.0848998)
(-0.0894685 3.1097 0.109539)
(-0.0977876 3.07182 0.139146)
(-0.106344 3.02997 0.174265)
(-0.1149 2.98518 0.215498)
(-0.123158 2.93869 0.263321)
(-0.13079 2.89199 0.318112)
(-0.137371 2.84665 0.380221)
(-0.142891 2.80394 0.449843)
(-0.147376 2.76468 0.527233)
(-0.150829 2.72923 0.612743)
(-0.153257 2.69759 0.706803)
(-0.154485 2.66982 0.810142)
(-0.153968 2.64613 0.923993)
(-0.150964 2.62663 1.0502)
(-0.144612 2.6115 1.19131)
(-0.134087 2.60093 1.35055)
(-0.118678 2.595 1.53204)
(-0.0978258 2.59359 1.74106)
(-0.0711764 2.59628 1.98434)
(-0.03852 2.60226 2.27026)
(-5.21837e-06 2.60988 2.60985)
(0.0437674 2.61676 3.01994)
(0.0934682 2.61982 3.52059)
(0.151639 2.61106 4.12617)
(0.160617 2.57574 4.87253)
(0.0371169 2.48829 5.82378)
(-0.123418 2.31351 6.96429)
(-0.169388 2.02271 8.08489)
(-0.114248 1.61915 8.8972)
(-0.0439772 1.15502 9.3315)
(0.00585762 0.682938 9.55236)
(0.0489975 0.224668 9.71525)
(-0.00209069 2.81934 0.00462436)
(-0.00624571 2.82138 0.0129489)
(-0.010441 2.82485 0.0190161)
(-0.0148158 2.82892 0.0223273)
(-0.0194652 2.83265 0.0230311)
(-0.0244402 2.83519 0.021813)
(-0.0297617 2.83586 0.0196752)
(-0.0354271 2.83413 0.0177371)
(-0.0414148 2.82965 0.0170681)
(-0.0476974 2.82218 0.0185682)
(-0.0542498 2.81153 0.022909)
(-0.0610649 2.79752 0.0305209)
(-0.0681701 2.77989 0.041636)
(-0.0756259 2.75834 0.0563893)
(-0.0835048 2.7326 0.0749263)
(-0.0918596 2.70253 0.09749)
(-0.100605 2.66828 0.124508)
(-0.109557 2.63027 0.156462)
(-0.118601 2.58929 0.193709)
(-0.12739 2.54641 0.236661)
(-0.135541 2.50299 0.285629)
(-0.142591 2.46028 0.340818)
(-0.147834 2.42002 0.402519)
(-0.151305 2.38353 0.471045)
(-0.153059 2.35164 0.546857)
(-0.153188 2.32466 0.630564)
(-0.151941 2.30225 0.722743)
(-0.14931 2.2838 0.824066)
(-0.14455 2.26913 0.935695)
(-0.136874 2.25814 1.05946)
(-0.125557 2.25077 1.19784)
(-0.109999 2.24695 1.35409)
(-0.0897614 2.24657 1.5324)
(-0.0646164 2.24939 1.73821)
(-0.0345932 2.25498 1.97851)
(-7.57526e-06 2.26252 2.26247)
(0.0385071 2.2703 2.60223)
(0.0798239 2.27561 3.01554)
(0.123417 2.27541 3.52461)
(0.170107 2.26445 4.15094)
(0.167916 2.23003 4.94332)
(0.0480773 2.15042 5.98107)
(-0.102983 1.99665 7.25443)
(-0.153654 1.74629 8.53613)
(-0.114586 1.4001 9.4879)
(-0.0567433 1.00001 9.99982)
(-0.0162195 0.591791 10.2483)
(0.0172442 0.194802 10.4184)
(-0.00237505 2.47769 0.00440394)
(-0.00708624 2.47969 0.0123391)
(-0.0118158 2.48303 0.0181579)
(-0.0167091 2.48682 0.0214214)
(-0.0218672 2.49007 0.0223051)
(-0.0273475 2.49192 0.0214939)
(-0.0331763 2.49165 0.0199703)
(-0.0393596 2.48875 0.0188283)
(-0.045884 2.48287 0.019115)
(-0.0527296 2.47381 0.0217189)
(-0.0598773 2.4614 0.0273169)
(-0.0673214 2.44551 0.036361)
(-0.0750852 2.42598 0.049111)
(-0.083215 2.40263 0.0657177)
(-0.0917656 2.37538 0.0863099)
(-0.100771 2.34427 0.111055)
(-0.110078 2.30965 0.140258)
(-0.119403 2.27213 0.174256)
(-0.128633 2.23264 0.21324)
(-0.137256 2.19206 0.257423)
(-0.144869 2.1521 0.307072)
(-0.150927 2.1135 0.362173)
(-0.154212 2.078 0.422822)
(-0.154995 2.04682 0.489514)
(-0.153381 2.02074 0.562928)
(-0.149558 2.0002 0.644037)
(-0.144218 1.98492 0.733864)
(-0.137771 1.97356 0.833059)
(-0.129105 1.96541 0.942528)
(-0.117406 1.96027 1.06404)
(-0.102082 1.95793 1.20008)
(-0.0827436 1.95821 1.35391)
(-0.0591998 1.96087 1.52978)
(-0.0314989 1.96557 1.73326)
(-9.95184e-06 1.97178 1.97173)
(0.0345757 1.97856 2.25494)
(0.0711611 1.98439 2.59625)
(0.108055 1.98664 3.01456)
(0.143771 1.98219 3.53376)
(0.177045 1.96602 4.18128)
(0.162718 1.92747 5.01675)
(0.0505236 1.84963 6.13175)
(-0.0841447 1.71065 7.52095)
(-0.137268 1.49277 8.94282)
(-0.114292 1.19607 10.0177)
(-0.0711129 0.854103 10.5993)
(-0.0419983 0.505451 10.8729)
(-0.0198045 0.166414 11.0499)
(-0.00259022 2.19819 0.00418313)
(-0.00772632 2.20007 0.0117358)
(-0.0128752 2.20314 0.0173316)
(-0.0181903 2.20647 0.0205939)
(-0.0237772 2.20908 0.0217245)
(-0.029697 2.21009 0.0214051)
(-0.0359802 2.20879 0.020596)
(-0.0426386 2.20467 0.0203625)
(-0.049665 2.1974 0.0217259)
(-0.0570447 2.18679 0.025559)
(-0.0647603 2.17272 0.0325373)
(-0.072801 2.15509 0.0431224)
(-0.081176 2.13386 0.0575841)
(-0.0899034 2.109 0.0760659)
(-0.0990068 2.08061 0.0986597)
(-0.108503 2.04893 0.125437)
(-0.118166 2.01446 0.156575)
(-0.127536 1.97787 0.192254)
(-0.136632 1.94037 0.232622)
(-0.144656 1.90254 0.277582)
(-0.151247 1.86638 0.327362)
(-0.155095 1.83301 0.381964)
(-0.154936 1.8028 0.441229)
(-0.152044 1.77646 0.505787)
(-0.146764 1.75453 0.576408)
(-0.139505 1.73757 0.654273)
(-0.131361 1.72619 0.741165)
(-0.121629 1.71971 0.838156)
(-0.109686 1.71617 0.945703)
(-0.0947418 1.71497 1.06529)
(-0.0763738 1.71586 1.19944)
(-0.0543987 1.71854 1.35143)
(-0.0288462 1.72266 1.52561)
(-1.24883e-05 1.7278 1.72774)
(0.0314765 1.73332 1.96552)
(0.0645964 1.73827 2.24935)
(0.097808 1.74111 2.59355)
(0.129004 1.73957 3.01833)
(0.155796 1.73036 3.54978)
(0.175224 1.70828 4.22033)
(0.149916 1.66408 5.09721)
(0.0481637 1.586 6.28024)
(-0.0680498 1.45909 7.76851)
(-0.123031 1.26871 9.31021)
(-0.115086 1.01468 10.491)
(-0.0868561 0.723779 11.1329)
(-0.0695728 0.428075 11.428)
(-0.0586529 0.14092 11.6108)
(-0.0027559 1.96652 0.00397162)
(-0.00822359 1.9682 0.0111667)
(-0.0137108 1.97087 0.0165776)
(-0.0193804 1.97361 0.0198929)
(-0.0253422 1.97545 0.0213405)
(-0.0316583 1.97551 0.0215976)
(-0.0383631 1.97311 0.021601)
(-0.0454716 1.96773 0.0223845)
(-0.0529806 1.95907 0.024941)
(-0.060878 1.94694 0.0301229)
(-0.0691426 1.93127 0.0385952)
(-0.0777498 1.91204 0.0508147)
(-0.0866809 1.8893 0.0670384)
(-0.0959087 1.8632 0.0873748)
(-0.105405 1.83402 0.111855)
(-0.115205 1.80224 0.140464)
(-0.125001 1.76826 0.17329)
(-0.133997 1.73306 0.210266)
(-0.142589 1.69806 0.251525)
(-0.148417 1.6647 0.296724)
(-0.150125 1.6334 0.345668)
(-0.148826 1.60559 0.399069)
(-0.14562 1.58079 0.457146)
(-0.14082 1.55899 0.520157)
(-0.134324 1.5404 0.588734)
(-0.12558 1.5253 0.663685)
(-0.114749 1.51453 0.746772)
(-0.102288 1.50935 0.840591)
(-0.0879001 1.50841 0.946212)
(-0.0705522 1.50966 1.06421)
(-0.050065 1.51244 1.19689)
(-0.0264742 1.51636 1.34763)
(-1.4716e-05 1.52095 1.52089)
(0.028819 1.52566 1.7226)
(0.059175 1.52983 1.96082)
(0.089739 1.53246 2.24652)
(0.118658 1.5321 2.59496)
(0.143444 1.52654 3.02777)
(0.161052 1.51253 3.57351)
(0.167473 1.48483 4.26904)
(0.133567 1.43547 5.18567)
(0.0435814 1.35752 6.42739)
(-0.0554171 1.24186 7.9989)
(-0.112344 1.07571 9.64201)
(-0.117775 0.858504 10.9129)
(-0.103552 0.611503 11.6061)
(-0.0974154 0.361345 11.9189)
(-0.0968003 0.11891 12.1062)
(-0.00288725 1.77204 0.00377857)
(-0.00862212 1.77346 0.0106573)
(-0.014392 1.77565 0.0159344)
(-0.0203701 1.77769 0.0193647)
(-0.0266706 1.77865 0.0212035)
(-0.0333559 1.77767 0.0221231)
(-0.0404625 1.77409 0.0230363)
(-0.0480069 1.7674 0.0249439)
(-0.0559881 1.75733 0.0288071)
(-0.0643929 1.74371 0.0354518)
(-0.0731895 1.72651 0.0455217)
(-0.0823269 1.70578 0.0594498)
(-0.0917437 1.68173 0.0774517)
(-0.101353 1.65465 0.0995762)
(-0.111027 1.62496 0.125763)
(-0.120903 1.59343 0.156014)
(-0.130591 1.56042 0.19021)
(-0.137968 1.52803 0.227926)
(-0.141659 1.497 0.268919)
(-0.141336 1.46883 0.313473)
(-0.138103 1.4428 0.36166)
(-0.133797 1.41923 0.413903)
(-0.129873 1.39836 0.470815)
(-0.125243 1.38014 0.532603)
(-0.119114 1.36457 0.599811)
(-0.110302 1.35161 0.673072)
(-0.0973536 1.34131 0.753258)
(-0.081943 1.33478 0.842958)
(-0.0650442 1.3334 0.945374)
(-0.0460984 1.33547 1.06171)
(-0.0243389 1.33905 1.19326)
(-1.70522e-05 1.34332 1.34327)
(0.0264426 1.34769 1.51631)
(0.0543694 1.35148 1.71848)
(0.0827168 1.35397 1.95816)
(0.109975 1.35415 2.2469)
(0.134065 1.35061 2.60089)
(0.152253 1.34121 3.04323)
(0.161108 1.32279 3.60504)
(0.156251 1.29037 4.32688)
(0.11652 1.23739 5.28092)
(0.0382086 1.16105 6.57203)
(-0.0465225 1.0565 8.21239)
(-0.105579 0.912068 9.94103)
(-0.122515 0.726582 11.2888)
(-0.120737 0.516849 12.0255)
(-0.124478 0.305118 12.3527)
(-0.132746 0.100361 12.5435)
(-0.00299645 1.60682 0.00361299)
(-0.0089565 1.60794 0.0102327)
(-0.0149727 1.60956 0.0154392)
(-0.0212294 1.61081 0.0190555)
(-0.0278457 1.61079 0.0213652)
(-0.0348842 1.60869 0.0230372)
(-0.0423816 1.60384 0.0249595)
(-0.050355 1.5958 0.0280984)
(-0.0588027 1.58428 0.0333801)
(-0.0677057 1.56916 0.0415961)
(-0.0770116 1.55047 0.0533526)
(-0.0866281 1.52839 0.0690325)
(-0.0964449 1.50322 0.0887903)
(-0.106298 1.47536 0.112622)
(-0.115852 1.44545 0.140321)
(-0.125431 1.41467 0.171844)
(-0.13169 1.38463 0.206512)
(-0.132722 1.3563 0.243939)
(-0.129811 1.32997 0.28438)
(-0.12528 1.30553 0.32819)
(-0.121203 1.28322 0.37579)
(-0.117622 1.26282 0.427308)
(-0.114079 1.24481 0.48312)
(-0.109457 1.22926 0.543636)
(-0.102755 1.21612 0.609463)
(-0.0929137 1.20527 0.681358)
(-0.0791969 1.19646 0.760148)
(-0.0619386 1.18945 0.847141)
(-0.0427726 1.1857 0.945565)
(-0.0223433 1.18623 1.05901)
(-2.01015e-05 1.1894 1.18935)
(0.0243018 1.19331 1.33899)
(0.0500307 1.19694 1.51238)
(0.0763424 1.19949 1.7158)
(0.102054 1.20014 1.95788)
(0.125531 1.1979 2.25071)
(0.144588 1.19138 2.61145)
(0.156393 1.17853 3.06464)
(0.157425 1.15642 3.64382)
(0.143486 1.12055 4.3924)
(0.100492 1.06587 5.38065)
(0.0327033 0.992771 6.71229)
(-0.041205 0.899216 8.40894)
(-0.102467 0.774216 10.2098)
(-0.129088 0.615988 11.6234)
(-0.138003 0.437744 12.3977)
(-0.150152 0.258198 12.7368)
(-0.165782 0.0848898 12.9301)
(-0.00309354 1.46486 0.0034839)
(-0.00925478 1.46563 0.00991805)
(-0.015496 1.4666 0.0151305)
(-0.0220144 1.46698 0.019014)
(-0.0289343 1.46589 0.0218823)
(-0.0363182 1.46257 0.0244024)
(-0.0442022 1.45638 0.0274373)
(-0.0526024 1.4469 0.0319174)
(-0.0615116 1.43388 0.038728)
(-0.070898 1.41726 0.0486127)
(-0.0806755 1.39715 0.0621159)
(-0.0907033 1.37385 0.0795518)
(-0.10081 1.34772 0.101042)
(-0.11072 1.31939 0.126447)
(-0.119205 1.29045 0.155266)
(-0.123617 1.26215 0.186905)
(-0.122236 1.23613 0.221193)
(-0.11775 1.21142 0.258269)
(-0.112665 1.1883 0.298407)
(-0.108506 1.16657 0.341887)
(-0.104985 1.14679 0.388816)
(-0.101747 1.12909 0.439432)
(-0.0981563 1.1136 0.49414)
(-0.0930769 1.1003 0.553456)
(-0.0854732 1.08907 0.618042)
(-0.0744618 1.07973 0.688702)
(-0.0596885 1.07209 0.766422)
(-0.0414742 1.06579 0.852315)
(-0.0212681 1.06069 0.948282)
(-2.09247e-05 1.05819 1.05816)
(0.0223001 1.05905 1.18619)
(0.0460577 1.06175 1.33541)
(0.0705146 1.06425 1.50959)
(0.0947077 1.06534 1.7149)
(0.117375 1.0641 1.9602)
(0.136847 1.05952 2.25808)
(0.15094 1.05027 2.62657)
(0.156891 1.0345 3.09158)
(0.151356 1.00958 3.6888)
(0.13066 0.971709 4.46356)
(0.086433 0.917246 5.48223)
(0.0273266 0.84874 6.84638)
(-0.039076 0.765777 8.58877)
(-0.102533 0.658055 10.4509)
(-0.137206 0.523252 11.9215)
(-0.155081 0.371666 12.7286)
(-0.174147 0.219103 13.0777)
(-0.195668 0.0720127 13.2728)
(-0.00318668 1.34152 0.00340042)
(-0.0095406 1.34191 0.00973977)
(-0.0159986 1.34219 0.0150493)
(-0.0227729 1.34159 0.019294)
(-0.0299937 1.33934 0.0228192)
(-0.0377226 1.33468 0.0262917)
(-0.0459943 1.32705 0.0305499)
(-0.0548205 1.31604 0.0364833)
(-0.0641805 1.30147 0.044926)
(-0.0740204 1.28336 0.056551)
(-0.0842165 1.26194 0.0718234)
(-0.0945594 1.2375 0.0910287)
(-0.104758 1.2107 0.114129)
(-0.112411 1.18345 0.140457)
(-0.114947 1.15718 0.169388)
(-0.111515 1.13249 0.200672)
(-0.105663 1.10906 0.234694)
(-0.100522 1.08679 0.271736)
(-0.0959049 1.06584 0.311644)
(-0.0921718 1.04656 0.354573)
(-0.0890833 1.02921 0.400711)
(-0.0860076 1.01384 0.450383)
(-0.082055 1.00044 0.504051)
(-0.0761524 0.98892 0.562296)
(-0.0673857 0.979118 0.625825)
(-0.0551521 0.970849 0.695484)
(-0.0393629 0.963897 0.772294)
(-0.0206195 0.958025 0.857538)
(-1.57102e-05 0.952835 0.952805)
(0.0212304 0.948313 1.06065)
(0.0427303 0.945594 1.18565)
(0.0649996 0.945404 1.33333)
(0.0878585 0.946246 1.50834)
(0.109649 0.945746 1.71609)
(0.129073 0.94258 1.96533)
(0.144522 0.935756 2.26906)
(0.153944 0.924062 2.64607)
(0.154812 0.905874 3.12342)
(0.144199 0.879071 3.7386)
(0.119102 0.84066 4.53804)
(0.0751946 0.788195 5.58313)
(0.0220732 0.725276 6.97295)
(-0.0402173 0.652462 8.75236)
(-0.105759 0.560307 10.6665)
(-0.146883 0.445838 12.1869)
(-0.171942 0.316845 13.0229)
(-0.196391 0.186786 13.3809)
(-0.222339 0.0613836 13.5775)
(-0.00328275 1.23321 0.0033721)
(-0.00983476 1.23318 0.00972639)
(-0.0165139 1.23268 0.015242)
(-0.0235489 1.23103 0.0199571)
(-0.031077 1.22749 0.0242513)
(-0.0391573 1.22139 0.0287923)
(-0.0478208 1.21219 0.0343912)
(-0.0570683 1.19956 0.0418873)
(-0.0668524 1.18341 0.0520415)
(-0.0770991 1.16389 0.0654416)
(-0.0876338 1.14119 0.0825252)
(-0.0980951 1.11591 0.103395)
(-0.105109 1.09022 0.127315)
(-0.105718 1.06568 0.153621)
(-0.101126 1.04235 0.182317)
(-0.094562 1.02002 0.21364)
(-0.0887225 0.99837 0.24776)
(-0.0837639 0.978069 0.28455)
(-0.0797146 0.959312 0.323988)
(-0.076583 0.942291 0.366239)
(-0.0738125 0.927077 0.411569)
(-0.0705891 0.913638 0.460355)
(-0.0659688 0.901889 0.513101)
(-0.0590225 0.8917 0.57043)
(-0.0490458 0.882907 0.633089)
(-0.0356997 0.875322 0.701963)
(-0.0191268 0.868733 0.778117)
(-7.04795e-06 0.8629 0.862877)
(0.0205974 0.857561 0.957995)
(0.0414434 0.852339 1.06575)
(0.0619019 0.847166 1.1894)
(0.0818998 0.84298 1.33471)
(0.102242 0.840614 1.50927)
(0.121589 0.838188 1.71962)
(0.137737 0.833102 1.97347)
(0.149283 0.824119 2.28371)