/*--------------------------------*- C++ -*----------------------------------*\
| =========                 |                                                 |
| \\      /  F ield         | OpenFOAM: The Open Source CFD Toolbox           |
|  \\    /   O peration     | Version:  2506                                  |
|   \\  /    A nd           | Website:  www.openfoam.com                      |
|    \\/     M anipulation  |                                                 |
\*---------------------------------------------------------------------------*/
FoamFile
{
    version     2.0;
    format      ascii;
    arch        "LSB;label=32;scalar=64";
    class       volScalarField;
    location    "2137";
    object      alpha_S;
}
// * * * * * * * * * * * * * * * * * * * * * * * * * * * * * * * * * * * * * //

dimensions      [0 0 0 0 0 0 0];

internalField   nonuniform List<scalar> 
2304
(
-3.84288
-3.84285
-3.84281
-3.84277
-3.84273
-3.8427
-3.84268
-3.84267
-3.84266
-3.84265
-3.84265
-3.84265
-3.84265
-3.84265
-3.84266
-3.84266
-3.84267
-3.84268
-3.84269
-3.8427
-3.84271
-3.84272
-3.84273
-3.84274
-3.84276
-3.84277
-3.84279
-3.84281
-3.84284
-3.84287
-3.84291
-3.84296
-3.84301
-3.84307
-3.84314
-3.84322
-3.84331
-3.8434
-3.8435
-3.84359
-3.84368
-3.84376
-3.84382
-3.84388
-3.84392
-3.84396
-3.84398
-3.84399
-3.80597
-3.80496
-3.80347
-3.80199
-3.80076
-3.79982
-3.79912
-3.7986
-3.79824
-3.79801
-3.79789
-3.79786
-3.79791
-3.79803
-3.79819
-3.7984
-3.79865
-3.79893
-3.79924
-3.79957
-3.79993
-3.80031
-3.80071
-3.80115
-3.80162
-3.80216
-3.8028
-3.80356
-3.80448
-3.80559
-3.80691
-3.80846
-3.81027
-3.81237
-3.81476
-3.81743
-3.82036
-3.82348
-3.82669
-3.82987
-3.83288
-3.83559
-3.83793
-3.83985
-3.84138
-3.84256
-3.84355
-3.84398
-3.52362
-3.51612
-3.50506
-3.49408
-3.48495
-3.47794
-3.47269
-3.46883
-3.46611
-3.46436
-3.46344
-3.46322
-3.46357
-3.4644
-3.46561
-3.46714
-3.46897
-3.47106
-3.47341
-3.476
-3.47879
-3.48178
-3.48496
-3.48832
-3.492
-3.49619
-3.50109
-3.50694
-3.51401
-3.52254
-3.53273
-3.54473
-3.55878
-3.57506
-3.59369
-3.61469
-3.63791
-3.66298
-3.68926
-3.7158
-3.74144
-3.76496
-3.7856
-3.80329
-3.81891
-3.83364
-3.84256
-3.84396
-2.69831
-2.67857
-2.6496
-2.62104
-2.59739
-2.57926
-2.56575
-2.55586
-2.54891
-2.54443
-2.54205
-2.54144
-2.54229
-2.54431
-2.5473
-2.55111
-2.55566
-2.56091
-2.56685
-2.57344
-2.58067
-2.58851
-2.59701
-2.60597
-2.61591
-2.62729
-2.64066
-2.65669
-2.67609
-2.69962
-2.72795
-2.76169
-2.8016
-2.84834
-2.90252
-2.96457
-3.03475
-3.11289
-3.1982
-3.28907
-3.38286
-3.47606
-3.56706
-3.65852
-3.75078
-3.81891
-3.84138
-3.84392
-1.61108
-1.58858
-1.55571
-1.52339
-1.49668
-1.47628
-1.46117
-1.45021
-1.44257
-1.43768
-1.43508
-1.43438
-1.43522
-1.43731
-1.44038
-1.44428
-1.44889
-1.4542
-1.46018
-1.46689
-1.47436
-1.4827
-1.49196
-1.50197
-1.51342
-1.52687
-1.54296
-1.56248
-1.58632
-1.61546
-1.65098
-1.69422
-1.74588
-1.80679
-1.87782
-1.95991
-2.05421
-2.16239
-2.28703
-2.43229
-2.60507
-2.81482
-3.07393
-3.38029
-3.65852
-3.80329
-3.83985
-3.84388
-0.866048
-0.851123
-0.828861
-0.806352
-0.787229
-0.772355
-0.761288
-0.753299
-0.747749
-0.744157
-0.742147
-0.741397
-0.741624
-0.742574
-0.744032
-0.745827
-0.747847
-0.750064
-0.752544
-0.755439
-0.758978
-0.763419
-0.768828
-0.775309
-0.783452
-0.793694
-0.806489
-0.822362
-0.841896
-0.865742
-0.894464
-0.928648
-0.968738
-1.01468
-1.06621
-1.12306
-1.18568
-1.2566
-1.34287
-1.4605
-1.64454
-1.9571
-2.45388
-3.07393
-3.56706
-3.7856
-3.83793
-3.84382
-0.546843
-0.546838
-0.546832
-0.546828
-0.546826
-0.546824
-0.546823
-0.546822
-0.546821
-0.546821
-0.546821
-0.546821
-0.546821
-0.546821
-0.546822
-0.546823
-0.546824
-0.546826
-0.546828
-0.54683
-0.546833
-0.546837
-0.546841
-0.546847
-0.546855
-0.546865
-0.54688
-0.546901
-0.546929
-0.546968
-0.547014
-0.568919
-0.594617
-0.619405
-0.641107
-0.657836
-0.669643
-0.681168
-0.705607
-0.769726
-0.925947
-1.2863
-1.9571
-2.81482
-3.47606
-3.76496
-3.83559
-3.84376
-0.546896
-0.546885
-0.54687
-0.546857
-0.546848
-0.546841
-0.546836
-0.546832
-0.546829
-0.546826
-0.546823
-0.546821
-0.54682
-0.546818
-0.546817
-0.546815
-0.546814
-0.546812
-0.54681
-0.546808
-0.546806
-0.546803
-0.546799
-0.546795
-0.546792
-0.54679
-0.546793
-0.546803
-0.546825
-0.546864
-0.546929
-0.547006
-0.547074
-0.547142
-0.547215
-0.547303
-0.547416
-0.547551
-0.547696
-0.547826
-0.551509
-0.925947
-1.64454
-2.60507
-3.38286
-3.74144
-3.83288
-3.84368
-0.546966
-0.546946
-0.546919
-0.546896
-0.546878
-0.546865
-0.546855
-0.546847
-0.54684
-0.546835
-0.54683
-0.546826
-0.546822
-0.546819
-0.546816
-0.546812
-0.546809
-0.546804
-0.546799
-0.546793
-0.546785
-0.546775
-0.546762
-0.546747
-0.546731
-0.546716
-0.546707
-0.54671
-0.546732
-0.546782
-0.546863
-0.546975
-0.547093
-0.54721
-0.547327
-0.547448
-0.547571
-0.547687
-0.547783
-0.547838
-0.547826
-0.769727
-1.4605
-2.43229
-3.28907
-3.7158
-3.82987
-3.84359
-0.546979
-0.546956
-0.546926
-0.546899
-0.546879
-0.546864
-0.546852
-0.546842
-0.546834
-0.546827
-0.546821
-0.546816
-0.546812
-0.546808
-0.546804
-0.546799
-0.546794
-0.546788
-0.54678
-0.54677
-0.546757
-0.546739
-0.546716
-0.546689
-0.54666
-0.546634
-0.54662
-0.54663
-0.54668
-0.546779
-0.546933
-0.547116
-0.547294
-0.547451
-0.547583
-0.547692
-0.547775
-0.547823
-0.547831
-0.547783
-0.547696
-0.705608
-1.34287
-2.28703
-3.1982
-3.68926
-3.82669
-3.8435
-0.54702
-0.546992
-0.546954
-0.54692
-0.546894
-0.546874
-0.546858
-0.546844
-0.546832
-0.546822
-0.546813
-0.546806
-0.5468
-0.546793
-0.546787
-0.546779
-0.54677
-0.54676
-0.546746
-0.546729
-0.546704
-0.546672
-0.54663
-0.546579
-0.546525
-0.546476
-0.54645
-0.546465
-0.546546
-0.54671
-0.546951
-0.547224
-0.547473
-0.547669
-0.547804
-0.547885
-0.547917
-0.547899
-0.547823
-0.547687
-0.547551
-0.681168
-1.2566
-2.16239
-3.11289
-3.66298
-3.82348
-3.8434
-0.547074
-0.547039
-0.546991
-0.546947
-0.546912
-0.546885
-0.546862
-0.546842
-0.546824
-0.54681
-0.546798
-0.546787
-0.546777
-0.546767
-0.546757
-0.546745
-0.54673
-0.546713
-0.546691
-0.54666
-0.546619
-0.546564
-0.546494
-0.54641
-0.546322
-0.546245
-0.546205
-0.546228
-0.546351
-0.5466
-0.546951
-0.547325
-0.547639
-0.547854
-0.547974
-0.548016
-0.547993
-0.547917
-0.547775
-0.547571
-0.547416
-0.669643
-1.18568
-2.05421
-3.03475
-3.63791
-3.82036
-3.84331
-0.547129
-0.547088
-0.547028
-0.546971
-0.546925
-0.546889
-0.546857
-0.54683
-0.546805
-0.546785
-0.546768
-0.546753
-0.546739
-0.546724
-0.546709
-0.54669
-0.546669
-0.546642
-0.546607
-0.546559
-0.546494
-0.546409
-0.546304
-0.546182
-0.546058
-0.545953
-0.545904
-0.545946
-0.546132
-0.546481
-0.546948
-0.547424
-0.547801
-0.548021
-0.548105
-0.548094
-0.548016
-0.547885
-0.547692
-0.547448
-0.547303
-0.657836
-1.12306
-1.95991
-2.96457
-3.61469
-3.81743
-3.84322
-0.547185
-0.547134
-0.54706
-0.546989
-0.54693
-0.546882
-0.54684
-0.546803
-0.54677
-0.546742
-0.546719
-0.546699
-0.546679
-0.546659
-0.546637
-0.54661
-0.546578
-0.546539
-0.546485
-0.546414
-0.54632
-0.546201
-0.54606
-0.545899
-0.545747
-0.545635
-0.545626
-0.545701
-0.545937
-0.546408
-0.547003
-0.547554
-0.547943
-0.548141
-0.548175
-0.548105
-0.547974
-0.547804
-0.547583
-0.547327
-0.547216
-0.641107
-1.06621
-1.87782
-2.90252
-3.5937
-3.81476
-3.84314
-0.547237
-0.547176
-0.547086
-0.546997
-0.546922
-0.54686
-0.546806
-0.546757
-0.546714
-0.546678
-0.546647
-0.54662
-0.546593
-0.546565
-0.546534
-0.546497
-0.546451
-0.546393
-0.546317
-0.546218
-0.54609
-0.545936
-0.545765
-0.545584
-0.545455
-0.545342
-0.545373
-0.545623
-0.561761
-0.568608
-0.566217
-0.550879
-0.548075
-0.548183
-0.548141
-0.548021
-0.547854
-0.547669
-0.547451
-0.54721
-0.547142
-0.619405
-1.01468
-1.80679
-2.84834
-3.57506
-3.81237
-3.84307
-0.547283
-0.54721
-0.5471
-0.546991
-0.546898
-0.546819
-0.54675
-0.546688
-0.546633
-0.546586
-0.546546
-0.546511
-0.546475
-0.546437
-0.546395
-0.546341
-0.546277
-0.546197
-0.546092
-0.545962
-0.545802
-0.545621
-0.545465
-0.545275
-0.545161
-0.54921
-0.576779
-0.597916
-0.610337
-0.612171
-0.60487
-0.590534
-0.564292
-0.548075
-0.547943
-0.547801
-0.547639
-0.547473
-0.547294
-0.547093
-0.547074
-0.594617
-0.968738
-1.74588
-2.8016
-3.55878
-3.81027
-3.84301
-0.547318
-0.547231
-0.547099
-0.546966
-0.54685
-0.546753
-0.546666
-0.546588
-0.546519
-0.54646
-0.546411
-0.546366
-0.546318
-0.546267
-0.54621
-0.546135
-0.546047
-0.54594
-0.545803
-0.545643
-0.545476
-0.545288
-0.545118
-0.545083
-0.575761
-0.607174
-0.631314
-0.646313
-0.653244
-0.650035
-0.637052
-0.615865
-0.590534
-0.550879
-0.547554
-0.547424
-0.547325
-0.547224
-0.547116
-0.546975
-0.547006
-0.568919
-0.928648
-1.69422
-2.76169
-3.54473
-3.80846
-3.84296
-0.54734
-0.547236
-0.547079
-0.546916
-0.546775
-0.546654
-0.546548
-0.546451
-0.546366
-0.546294
-0.546233
-0.546176
-0.546114
-0.546047
-0.54597
-0.545868
-0.545749
-0.545613
-0.54546
-0.545298
-0.545099
-0.54498
-0.565484
-0.603017
-0.636132
-0.66255
-0.682704
-0.693335
-0.693974
-0.684185
-0.664638
-0.637052
-0.60487
-0.566217
-0.547003
-0.546948
-0.546951
-0.546951
-0.546933
-0.546863
-0.546929
-0.547014
-0.894464
-1.65098
-2.72795
-3.53273
-3.80691
-3.84291
-0.547343
-0.547222
-0.547033
-0.546838
-0.546664
-0.546516
-0.546385
-0.546267
-0.546164
-0.546078
-0.546004
-0.545934
-0.545853
-0.545763
-0.545664
-0.545529
-0.545399
-0.545254
-0.545053
-0.544917
-0.556443
-0.593385
-0.630105
-0.66382
-0.694107
-0.717252
-0.731633
-0.735624
-0.728715
-0.711176
-0.684185
-0.650035
-0.612171
-0.568608
-0.546408
-0.546481
-0.5466
-0.54671
-0.54678
-0.546782
-0.546864
-0.546968
-0.865743
-1.61546
-2.69962
-3.52254
-3.80559
-3.84287
-0.547327
-0.547184
-0.546961
-0.546724
-0.546511
-0.546328
-0.546167
-0.546024
-0.5459
-0.545797
-0.54571
-0.545625
-0.545522
-0.545419
-0.545319
-0.545149
-0.54496
-0.544865
-0.555759
-0.587463
-0.622559
-0.657992
-0.69283
-0.724889
-0.750779
-0.767916
-0.774705
-0.770308
-0.7547
-0.728715
-0.693974
-0.653244
-0.610337
-0.561761
-0.545937
-0.546132
-0.546351
-0.546546
-0.54668
-0.546732
-0.546825
-0.546929
-0.841897
-1.58632
-2.6761
-3.51401
-3.80448
-3.84284
-0.54729
-0.547123
-0.546858
-0.546572
-0.54631
-0.54608
-0.545879
-0.545703
-0.545554
-0.545433
-0.545338
-0.545253
-0.545129
-0.544986
-0.544888
-0.544805
-0.564669
-0.589674
-0.619472
-0.651805
-0.686558
-0.722805
-0.756068
-0.783609
-0.802717
-0.811571
-0.809172
-0.795256
-0.770308
-0.735624
-0.693335
-0.646313
-0.597916
-0.545623
-0.545701
-0.545946
-0.546228
-0.546465
-0.54663
-0.54671
-0.546803
-0.546901
-0.822363
-1.56248
-2.65669
-3.50694
-3.80356
-3.84281
-0.547231
-0.547037
-0.546723
-0.546376
-0.54605
-0.54576
-0.545504
-0.545285
-0.545105
-0.544969
-0.544859
-0.54478
-0.546143
-0.560418
-0.577088
-0.598031
-0.622078
-0.649379
-0.681642
-0.717776
-0.754106
-0.788164
-0.816577
-0.836816
-0.847002
-0.845967
-0.833264
-0.809172
-0.774705
-0.731633
-0.682704
-0.631314
-0.576779
-0.545373
-0.545626
-0.545904
-0.546205
-0.54645
-0.54662
-0.546707
-0.546793
-0.54688
-0.806489
-1.54296
-2.64066
-3.50109
-3.8028
-3.84279
-0.547155
-0.546928
-0.546556
-0.546134
-0.545724
-0.54535
-0.545018
-0.544742
-0.544522
-0.544394
-0.553893
-0.56987
-0.586898
-0.605089
-0.625646
-0.650247
-0.680736
-0.714605
-0.750952
-0.787743
-0.821866
-0.850532
-0.87121
-0.881991
-0.881637
-0.869591
-0.845967
-0.811571
-0.767916
-0.717252
-0.66255
-0.607174
-0.54921
-0.545342
-0.545635
-0.545953
-0.546245
-0.546476
-0.546634
-0.546716
-0.54679
-0.546865
-0.793694
-1.52687
-2.62729
-3.49619
-3.80216
-3.84277
-0.547063
-0.5468
-0.546359
-0.545843
-0.545323
-0.544834
-0.544401
-0.544044
-0.543849
-0.565955
-0.586144
-0.605942
-0.627565
-0.653179
-0.681889
-0.714096
-0.749786
-0.787044
-0.823919
-0.857909
-0.886347
-0.906877
-0.917609
-0.917278
-0.905281
-0.881637
-0.847002
-0.802717
-0.750779
-0.694107
-0.636132
-0.575761
-0.545161
-0.545455
-0.545747
-0.546058
-0.546322
-0.546525
-0.54666
-0.546731
-0.546792
-0.546855
-0.783452
-1.51342
-2.61591
-3.492
-3.80162
-3.84276
-0.546964
-0.546658
-0.546134
-0.5455
-0.544838
-0.544198
-0.543622
-0.543263
-0.570075
-0.5961
-0.622522
-0.65068
-0.680891
-0.714046
-0.749671
-0.787303
-0.825745
-0.863006
-0.896828
-0.924834
-0.944792
-0.954922
-0.954022
-0.941479
-0.917278
-0.881991
-0.836816
-0.783609
-0.724889
-0.66382
-0.603018
-0.545083
-0.545275
-0.545584
-0.545899
-0.546182
-0.54641
-0.546579
-0.546689
-0.546747
-0.546795
-0.546847
-0.775309
-1.50197
-2.60597
-3.48832
-3.80115
-3.84274
-0.546868
-0.546511
-0.545887
-0.545106
-0.544266
-0.543424
-0.542762
-0.566392
-0.600319
-0.635287
-0.670756
-0.707595
-0.745996
-0.785918
-0.82661
-0.866895
-0.90508
-0.939049
-0.966606
-0.985763
-0.99491
-0.992944
-0.979316
-0.954022
-0.917609
-0.87121
-0.816577
-0.756068
-0.69283
-0.630106
-0.565484
-0.545118
-0.545465
-0.545765
-0.54606
-0.546304
-0.546494
-0.54663
-0.546716
-0.546762
-0.546799
-0.546841
-0.768829
-1.49196
-2.59701
-3.48496
-3.80071
-3.84273
-0.546788
-0.546371
-0.545625
-0.544665
-0.543606
-0.542571
-0.555893
-0.598646
-0.642008
-0.686249
-0.730951
-0.776236
-0.821766
-0.866813
-0.910109
-0.95001
-0.984618
-1.012
-1.03038
-1.03835
-1.03498
-1.01982
-0.992944
-0.954922
-0.906877
-0.850532
-0.788164
-0.722805
-0.657993
-0.593385
-0.54498
-0.545288
-0.545621
-0.545936
-0.546201
-0.546409
-0.546564
-0.546672
-0.546739
-0.546775
-0.546803
-0.546837
-0.76342
-1.4827
-2.58851
-3.48178
-3.80031
-3.84272
-0.546748
-0.546258
-0.545364
-0.544183
-0.542861
-0.541818
-0.591794
-0.642353
-0.695569
-0.749352
-0.803028
-0.855836
-0.906724
-0.954349
-0.997107
-1.03324
-1.061
-1.0789
-1.08576
-1.08083
-1.06384
-1.03498
-0.99491
-0.944792
-0.886347
-0.821865
-0.754106
-0.686558
-0.622559
-0.556443
-0.545099
-0.545476
-0.545802
-0.54609
-0.54632
-0.546494
-0.546619
-0.546704
-0.546757
-0.546785
-0.546806
-0.546833
-0.758979
-1.47436
-2.58067
-3.47879
-3.79993
-3.84271
-0.546783
-0.546201
-0.545126
-0.543691
-0.542233
-0.580909
-0.636946
-0.698331
-0.761517
-0.824715
-0.886296
-0.944693
-0.998273
-1.04532
-1.08416
-1.11323
-1.13125
-1.1373
-1.13088
-1.11194
-1.08083
-1.03835
-0.985762
-0.924834
-0.857909
-0.787743
-0.717776
-0.651805
-0.587463
-0.544917
-0.545298
-0.545643
-0.545962
-0.546218
-0.546414
-0.546559
-0.54666
-0.546729
-0.54677
-0.546793
-0.546808
-0.54683
-0.75544
-1.46689
-2.57345
-3.476
-3.79957
-3.8427
-0.546947
-0.546254
-0.54498
-0.543376
-0.569386
-0.628151
-0.69546
-0.767196
-0.840143
-0.911573
-0.979016
-1.04025
-1.09327
-1.1363
-1.16788
-1.18692
-1.19276
-1.18517
-1.16435
-1.13088
-1.08576
-1.03038
-0.966606
-0.896828
-0.823919
-0.750952
-0.681642
-0.619472
-0.55576
-0.545052
-0.54546
-0.545803
-0.546092
-0.546317
-0.546485
-0.546607
-0.546691
-0.546746
-0.54678
-0.546799
-0.54681
-0.546828
-0.752545
-1.46018
-2.56685
-3.47341
-3.79924
-3.84269
-0.547361
-0.546556
-0.545121
-0.565325
-0.623222
-0.69012
-0.767704
-0.849301
-0.930746
-1.00827
-1.07868
-1.13937
-1.18825
-1.22379
-1.24503
-1.25152
-1.24333
-1.22092
-1.18517
-1.1373
-1.0789
-1.012
-0.939048
-0.863005
-0.787044
-0.714605
-0.649378
-0.589674
-0.544865
-0.545254
-0.545613
-0.54594
-0.546197
-0.546393
-0.546539
-0.546642
-0.546713
-0.54676
-0.546788
-0.546804
-0.546812
-0.546826
-0.750065
-1.4542
-2.56091
-3.47106
-3.79893
-3.84268
-0.548198
-0.547318
-0.575405
-0.625561
-0.687878
-0.76637
-0.85385
-0.944109
-1.03179
-1.11234
-1.18215
-1.23851
-1.27959
-1.30439
-1.31263
-1.30461
-1.28111
-1.24333
-1.19276
-1.13125
-1.061
-0.984617
-0.905079
-0.825744
-0.749786
-0.680736
-0.622078
-0.564669
-0.54496
-0.545399
-0.545749
-0.546047
-0.546277
-0.546451
-0.546578
-0.546669
-0.54673
-0.54677
-0.546794
-0.546809
-0.546814
-0.546824
-0.747848
-1.4489
-2.55566
-3.46897
-3.79865
-3.84267
-0.582433
-0.603218
-0.63971
-0.693782
-0.768548
-0.857562
-0.953808
-1.05031
-1.14094
-1.22068
-1.28582
-1.3339
-1.36368
-1.37485
-1.36794
-1.34403
-1.3046
-1.25152
-1.18692
-1.11323
-1.03323
-0.950009
-0.866894
-0.787302
-0.714096
-0.650247
-0.598031
-0.544805
-0.545149
-0.545529
-0.545868
-0.546135
-0.546341
-0.546497
-0.54661
-0.54669
-0.546745
-0.546779
-0.546799
-0.546812
-0.546815
-0.546823
-0.745828
-1.44428
-2.55111
-3.46714
-3.7984
-3.84266
-0.649221
-0.670003
-0.714164
-0.780824
-0.866466
-0.964323
-1.06668
-1.16584
-1.2552
-1.32966
-1.38579
-1.42172
-1.43699
-1.43214
-1.40851
-1.36794
-1.31263
-1.24503
-1.16788
-1.08416
-0.997106
-0.910107
-0.826609
-0.74967
-0.681888
-0.625646
-0.577087
-0.544888
-0.545319
-0.545664
-0.54597
-0.54621
-0.546395
-0.546534
-0.546637
-0.546709
-0.546757
-0.546787
-0.546804
-0.546816
-0.546817
-0.546822
-0.744033
-1.44038
-2.5473
-3.46561
-3.79819
-3.84266
-0.730784
-0.758238
-0.812037
-0.888738
-0.98278
-1.08638
-1.19082
-1.28794
-1.37103
-1.43533
-1.47804
-1.49817
-1.49614
-1.47342
-1.43214
-1.37485
-1.30439
-1.22379
-1.1363
-1.04532
-0.954348
-0.866811
-0.785917
-0.714045
-0.653178
-0.605088
-0.560417
-0.544986
-0.545418
-0.545763
-0.546047
-0.546267
-0.546437
-0.546565
-0.546659
-0.546724
-0.546767
-0.546793
-0.546808
-0.546819
-0.546818
-0.546821
-0.742575
-1.43731
-2.54431
-3.4644
-3.79803
-3.84265
-0.842296
-0.874748
-0.935659
-1.01931
-1.11812
-1.22279
-1.32393
-1.41328
-1.48449
-1.53351
-1.5585
-1.55951
-1.53794
-1.49614
-1.43699
-1.36367
-1.27959
-1.18825
-1.09327
-0.998271
-0.906722
-0.821764
-0.745994
-0.680889
-0.627563
-0.586896
-0.546142
-0.545129
-0.545522
-0.545853
-0.546114
-0.546318
-0.546475
-0.546593
-0.546679
-0.546739
-0.546777
-0.5468
-0.546812
-0.546822
-0.54682
-0.546821
-0.741625
-1.43523
-2.54229
-3.46357
-3.79791
-3.84265
-0.986945
-1.0225
-1.08761
-1.17408
-1.27226
-1.37181
-1.46306
-1.53808
-1.59135
-1.61992
-1.62316
-1.60222
-1.55951
-1.49817
-1.42172
-1.3339
-1.23851
-1.13937
-1.04025
-0.944691
-0.855834
-0.776234
-0.707593
-0.650678
-0.605941
-0.569868
-0.54478
-0.545253
-0.545625
-0.545934
-0.546176
-0.546366
-0.546511
-0.54662
-0.546699
-0.546753
-0.546787
-0.546806
-0.546816
-0.546826
-0.546821
-0.546821
-0.741399
-1.43438
-2.54145
-3.46322
-3.79786
-3.84265
-1.16835
-1.20483
-1.26995
-1.35341
-1.44405
-1.53093
-1.60462
-1.65811
-1.68718
-1.69031
-1.6682
-1.62316
-1.5585
-1.47804
-1.38579
-1.28581
-1.18215
-1.07868
-0.979013
-0.886293
-0.803026
-0.730948
-0.670754
-0.62252
-0.586142
-0.55389
-0.544859
-0.545338
-0.54571
-0.546004
-0.546233
-0.546411
-0.546546
-0.546647
-0.546719
-0.546768
-0.546798
-0.546813
-0.546821
-0.54683
-0.546823
-0.546821
-0.742148
-1.43508
-2.54205
-3.46344
-3.79789
-3.84265
-1.38887
-1.42328
-1.48301
-1.55629
-1.63111
-1.69661
-1.74433
-1.76879
-1.7675
-1.74063
-1.69031
-1.61992
-1.53351
-1.43533
-1.32966
-1.22068
-1.11234
-1.00826
-0.911571
-0.824712
-0.74935
-0.686247
-0.635285
-0.596098
-0.565952
-0.544394
-0.544969
-0.545433
-0.545797
-0.546078
-0.546294
-0.54646
-0.546586
-0.546678
-0.546742
-0.546785
-0.54681
-0.546822
-0.546827
-0.546835
-0.546826
-0.546821
-0.744159
-1.43768
-2.54443
-3.46436
-3.79801
-3.84265
-1.6483
-1.67706
-1.725
-1.77977
-1.82944
-1.86416
-1.87723
-1.86529
-1.82805
-1.7675
-1.68718
-1.59135
-1.48449
-1.37103
-1.2552
-1.14094
-1.03178
-0.930743
-0.84014
-0.761515
-0.695567
-0.642005
-0.600316
-0.570073
-0.543849
-0.544522
-0.545105
-0.545554
-0.5459
-0.546164
-0.546366
-0.546519
-0.546633
-0.546714
-0.54677
-0.546805
-0.546824
-0.546832
-0.546834
-0.54684
-0.546829
-0.546821
-0.747751
-1.44258
-2.54891
-3.46612
-3.79824
-3.84266
-1.9431
-1.96216
-1.99115
-2.01837
-2.03313
-2.02763
-1.99776
-1.94293
-1.86529
-1.76879
-1.65811
-1.53808
-1.41328
-1.28794
-1.16584
-1.05031
-0.944108
-0.849299
-0.767194
-0.698329
-0.642351
-0.598644
-0.56639
-0.543263
-0.544044
-0.544742
-0.545285
-0.545703
-0.546024
-0.546267
-0.546451
-0.546588
-0.546688
-0.546757
-0.546803
-0.54683
-0.546842
-0.546844
-0.546842
-0.546847
-0.546832
-0.546822
-0.7533
-1.45022
-2.55586
-3.46884
-3.7986
-3.84267
-2.26525
-2.27033
-2.27303
-2.2637
-2.23425
-2.18001
-2.10029
-1.99776
-1.87723
-1.74433
-1.60462
-1.46306
-1.32393
-1.19082
-1.06668
-0.953807
-0.85385
-0.767703
-0.695458
-0.636944
-0.591792
-0.555891
-0.542762
-0.543622
-0.544401
-0.545019
-0.545504
-0.545879
-0.546167
-0.546385
-0.546548
-0.546666
-0.54675
-0.546806
-0.54684
-0.546857
-0.546862
-0.546858
-0.546852
-0.546855
-0.546836
-0.546823
-0.76129
-1.46117
-2.56575
-3.47269
-3.79912
-3.84268
-2.6018
-2.58888
-2.55853
-2.50473
-2.42336
-2.31398
-2.18001
-2.02764
-1.86417
-1.69661
-1.53093
-1.37182
-1.22279
-1.08639
-0.964324
-0.857563
-0.76637
-0.690119
-0.628151
-0.580908
-0.541818
-0.542572
-0.543424
-0.544198
-0.544834
-0.54535
-0.54576
-0.54608
-0.546328
-0.546516
-0.546654
-0.546753
-0.546819
-0.54686
-0.546882
-0.546889
-0.546885
-0.546874
-0.546864
-0.546865
-0.546841
-0.546824
-0.772356
-1.47628
-2.57926
-3.47794
-3.79982
-3.8427
-2.93542
-2.90129
-2.83273
-2.72888
-2.59088
-2.42336
-2.23425
-2.03314
-1.82944
-1.63111
-1.44406
-1.27226
-1.11812
-0.982782
-0.866468
-0.76855
-0.687879
-0.623223
-0.569386
-0.542233
-0.542861
-0.543606
-0.544266
-0.544838
-0.545323
-0.545724
-0.54605
-0.54631
-0.546512
-0.546664
-0.546775
-0.54685
-0.546898
-0.546922
-0.54693
-0.546925
-0.546912
-0.546894
-0.546879
-0.546878
-0.546848
-0.546826
-0.78723
-1.49669
-2.59739
-3.48495
-3.80076
-3.84273
-3.24569
-3.18869
-3.07961
-2.92389
-2.72888
-2.50473
-2.26371
-2.01837
-1.77977
-1.55629
-1.35341
-1.17408
-1.01932
-0.888742
-0.780827
-0.693784
-0.625563
-0.565327
-0.543376
-0.543692
-0.544184
-0.544665
-0.545106
-0.5455
-0.545843
-0.546134
-0.546376
-0.546572
-0.546724
-0.546838
-0.546916
-0.546966
-0.546991
-0.546997
-0.546989
-0.546971
-0.546947
-0.54692
-0.546899
-0.546896
-0.546857
-0.546828
-0.806352
-1.52339
-2.62104
-3.49408
-3.80199
-3.84277
-3.5106
-3.43148
-3.28376
-3.07961
-2.83274
-2.55854
-2.27304
-1.99116
-1.72501
-1.48302
-1.26996
-1.08762
-0.935664
-0.812041
-0.714167
-0.639712
-0.575407
-0.545121
-0.54498
-0.545126
-0.545364
-0.545625
-0.545887
-0.546134
-0.546359
-0.546556
-0.546723
-0.546858
-0.546961
-0.547033
-0.547079
-0.547099
-0.5471
-0.547086
-0.54706
-0.547028
-0.546991
-0.546954
-0.546926
-0.546919
-0.54687
-0.546832
-0.82886
-1.5557
-2.6496
-3.50506
-3.80347
-3.84281
-3.70781
-3.61056
-3.43149
-3.18869
-2.9013
-2.58889
-2.27034
-1.96217
-1.67707
-1.42328
-1.20484
-1.02251
-0.874753
-0.758243
-0.670006
-0.603221
-0.547318
-0.546556
-0.546254
-0.546201
-0.546258
-0.546371
-0.546511
-0.546658
-0.5468
-0.546928
-0.547037
-0.547123
-0.547184
-0.547222
-0.547236
-0.547231
-0.54721
-0.547176
-0.547134
-0.547088
-0.547039
-0.546992
-0.546956
-0.546946
-0.546885
-0.546838
-0.851121
-1.58857
-2.67856
-3.51612
-3.80496
-3.84285
-3.81563
-3.70781
-3.51061
-3.2457
-2.93543
-2.60181
-2.26526
-1.94311
-1.64831
-1.38888
-1.16836
-0.986952
-0.842301
-0.730789
-0.649224
-0.582436
-0.548198
-0.547361
-0.546947
-0.546783
-0.546748
-0.546788
-0.546868
-0.546964
-0.547063
-0.547155
-0.547231
-0.54729
-0.547327
-0.547343
-0.54734
-0.547318
-0.547283
-0.547237
-0.547185
-0.547129
-0.547074
-0.54702
-0.546979
-0.546966
-0.546896
-0.546843
-0.866045
-1.61108
-2.69831
-3.52362
-3.80597
-3.84288
)
;

boundaryField
{
    inlet
    {
        type            cyclic;
    }
    outlet
    {
        type            cyclic;
    }
    walls
    {
        type            calculated;
        value           nonuniform List<scalar> 
96
(
-3.84399
-3.84398
-3.84396
-3.84392
-3.84388
-3.84382
-3.84375
-3.84367
-3.84358
-3.84349
-3.84339
-3.8433
-3.84321
-3.84313
-3.84306
-3.843
-3.84294
-3.8429
-3.84286
-3.84283
-3.8428
-3.84278
-3.84276
-3.84274
-3.84273
-3.84272
-3.8427
-3.84269
-3.84268
-3.84267
-3.84266
-3.84265
-3.84265
-3.84264
-3.84264
-3.84263
-3.84263
-3.84263
-3.84264
-3.84264
-3.84265
-3.84267
-3.84269
-3.84272
-3.84275
-3.8428
-3.84284
-3.84287
-3.84287
-3.84284
-3.8428
-3.84275
-3.84272
-3.84269
-3.84267
-3.84265
-3.84264
-3.84264
-3.84263
-3.84263
-3.84263
-3.84264
-3.84264
-3.84265
-3.84265
-3.84266
-3.84267
-3.84268
-3.84269
-3.8427
-3.84272
-3.84273
-3.84274
-3.84276
-3.84278
-3.8428
-3.84283
-3.84286
-3.8429
-3.84294
-3.843
-3.84306
-3.84313
-3.84321
-3.8433
-3.84339
-3.84349
-3.84358
-3.84367
-3.84375
-3.84382
-3.84388
-3.84392
-3.84396
-3.84398
-3.84399
)
;
    }
    symPlanes
    {
        type            symmetry;
    }
}


// ************************************************************************* //
