/*--------------------------------*- C++ -*----------------------------------*\
| =========                 |                                                 |
| \\      /  F ield         | OpenFOAM: The Open Source CFD Toolbox           |
|  \\    /   O peration     | Version:  2506                                  |
|   \\  /    A nd           | Website:  www.openfoam.com                      |
|    \\/     M anipulation  |                                                 |
\*---------------------------------------------------------------------------*/
FoamFile
{
    version     2.0;
    format      ascii;
    arch        "LSB;label=32;scalar=64";
    class       volScalarField;
    location    "2137";
    object      alpha_A;
}
// * * * * * * * * * * * * * * * * * * * * * * * * * * * * * * * * * * * * * //

dimensions      [0 0 0 0 0 0 0];

internalField   nonuniform List<scalar> 
2304
(
0.581603
0.58158
0.581547
0.581514
0.581486
0.581465
0.581449
0.581438
0.58143
0.581425
0.581422
0.581421
0.581422
0.581425
0.581429
0.581433
0.581439
0.581445
0.581452
0.58146
0.581468
0.581476
0.581485
0.581495
0.581505
0.581517
0.581532
0.581549
0.581569
0.581594
0.581624
0.581659
0.5817
0.581747
0.581801
0.581861
0.581927
0.581997
0.582069
0.58214
0.582207
0.582267
0.582319
0.582362
0.582396
0.582422
0.58244
0.582448
0.55344
0.552671
0.551533
0.550403
0.549466
0.548749
0.548215
0.547822
0.547546
0.547368
0.547276
0.547256
0.547296
0.547384
0.54751
0.547669
0.547857
0.54807
0.548306
0.548563
0.548838
0.549127
0.549433
0.549761
0.550124
0.550536
0.55102
0.551601
0.552302
0.553148
0.554156
0.555342
0.556725
0.558324
0.560145
0.562183
0.564416
0.566796
0.569248
0.571675
0.57397
0.57604
0.577821
0.579289
0.580452
0.581356
0.582111
0.58244
0.338043
0.332327
0.323887
0.31551
0.308548
0.303195
0.299192
0.296252
0.294177
0.292839
0.292135
0.291966
0.292239
0.292868
0.293791
0.294961
0.296353
0.297952
0.299745
0.301716
0.303847
0.306124
0.308554
0.311116
0.313925
0.317117
0.320853
0.32532
0.330714
0.337218
0.344986
0.354139
0.364855
0.377278
0.391492
0.407509
0.425222
0.444353
0.464405
0.484656
0.504217
0.522155
0.537904
0.551397
0.563317
0.574549
0.581356
0.582422
-0.291578
-0.30664
-0.32873
-0.350519
-0.368557
-0.382387
-0.392696
-0.400237
-0.405541
-0.40896
-0.410771
-0.411234
-0.41059
-0.409048
-0.406769
-0.403862
-0.400392
-0.396383
-0.391853
-0.386822
-0.381312
-0.375327
-0.368845
-0.362011
-0.354429
-0.345749
-0.335547
-0.323321
-0.308522
-0.290582
-0.268976
-0.243242
-0.212807
-0.177152
-0.135832
-0.0884937
-0.0349557
0.0246626
0.0897658
0.159107
0.230669
0.301771
0.371185
0.440956
0.511341
0.563317
0.580452
0.582396
-1.12107
-1.13822
-1.16328
-1.18792
-1.20828
-1.22384
-1.23536
-1.24372
-1.24954
-1.25328
-1.25526
-1.25579
-1.25515
-1.25356
-1.25121
-1.24824
-1.24472
-1.24067
-1.23611
-1.23099
-1.22529
-1.21893
-1.21187
-1.20424
-1.1955
-1.18525
-1.17297
-1.15809
-1.13991
-1.11769
-1.09061
-1.05764
-1.01824
-0.971795
-0.917628
-0.855022
-0.783086
-0.700545
-0.60543
-0.494572
-0.362711
-0.202675
-0.00500877
0.228705
0.440956
0.551397
0.579289
0.582362
-1.68939
-1.70076
-1.71773
-1.73489
-1.74947
-1.76082
-1.76926
-1.77535
-1.77959
-1.78233
-1.78386
-1.78443
-1.78426
-1.78353
-1.78242
-1.78105
-1.77951
-1.77782
-1.77594
-1.77373
-1.77104
-1.76765
-1.76353
-1.7586
-1.7524
-1.7446
-1.73486
-1.72277
-1.70789
-1.68973
-1.66785
-1.6418
-1.61125
-1.57623
-1.53697
-1.49365
-1.44593
-1.39189
-1.32609
-1.2363
-1.09573
-0.857118
-0.47805
-0.00500858
0.371185
0.537904
0.577821
0.582319
-1.93291
-1.9329
-1.93289
-1.93289
-1.93288
-1.93288
-1.93288
-1.93288
-1.93288
-1.93288
-1.93288
-1.93288
-1.93288
-1.93288
-1.93288
-1.93288
-1.93288
-1.93288
-1.93289
-1.93289
-1.93289
-1.9329
-1.93291
-1.93292
-1.93293
-1.93294
-1.93297
-1.933
-1.93304
-1.9331
-1.93318
-1.91653
-1.89699
-1.87815
-1.86168
-1.84904
-1.8402
-1.83161
-1.81316
-1.76428
-1.6447
-1.3692
-0.857118
-0.202674
0.301771
0.522155
0.57604
0.582267
-1.93299
-1.93297
-1.93295
-1.93293
-1.93292
-1.93291
-1.9329
-1.93289
-1.93289
-1.93288
-1.93288
-1.93288
-1.93287
-1.93287
-1.93287
-1.93287
-1.93286
-1.93286
-1.93286
-1.93286
-1.93285
-1.93285
-1.93284
-1.93284
-1.93283
-1.93283
-1.93283
-1.93285
-1.93288
-1.93294
-1.93304
-1.93316
-1.93327
-1.93338
-1.93349
-1.93363
-1.9338
-1.93401
-1.93424
-1.93444
-1.93147
-1.6447
-1.09573
-0.362711
0.230669
0.504217
0.57397
0.582207
-1.9331
-1.93307
-1.93303
-1.93299
-1.93296
-1.93294
-1.93293
-1.93292
-1.93291
-1.9329
-1.93289
-1.93288
-1.93288
-1.93287
-1.93287
-1.93286
-1.93286
-1.93285
-1.93284
-1.93283
-1.93282
-1.9328
-1.93278
-1.93276
-1.93273
-1.93271
-1.9327
-1.9327
-1.93274
-1.93281
-1.93294
-1.93312
-1.9333
-1.93348
-1.93366
-1.93385
-1.93404
-1.93422
-1.93437
-1.93446
-1.93444
-1.76428
-1.2363
-0.494571
0.159107
0.484656
0.571675
0.58214
-1.93312
-1.93309
-1.93304
-1.933
-1.93297
-1.93294
-1.93292
-1.93291
-1.9329
-1.93288
-1.93288
-1.93287
-1.93286
-1.93286
-1.93285
-1.93284
-1.93283
-1.93282
-1.93281
-1.9328
-1.93278
-1.93275
-1.93271
-1.93267
-1.93262
-1.93258
-1.93256
-1.93258
-1.93266
-1.93281
-1.93305
-1.93334
-1.93361
-1.93386
-1.93406
-1.93423
-1.93436
-1.93444
-1.93445
-1.93437
-1.93424
-1.81316
-1.32609
-0.605429
0.089766
0.464405
0.569248
0.582069
-1.93318
-1.93314
-1.93308
-1.93303
-1.93299
-1.93296
-1.93293
-1.93291
-1.93289
-1.93288
-1.93286
-1.93285
-1.93284
-1.93283
-1.93282
-1.93281
-1.9328
-1.93278
-1.93276
-1.93273
-1.93269
-1.93264
-1.93258
-1.9325
-1.93241
-1.93234
-1.9323
-1.93232
-1.93245
-1.9327
-1.93308
-1.9335
-1.93389
-1.9342
-1.93441
-1.93453
-1.93458
-1.93455
-1.93444
-1.93422
-1.93401
-1.83161
-1.39188
-0.700544
0.024663
0.444353
0.566796
0.581997
-1.93327
-1.93322
-1.93314
-1.93307
-1.93302
-1.93298
-1.93294
-1.93291
-1.93288
-1.93286
-1.93284
-1.93282
-1.93281
-1.93279
-1.93278
-1.93276
-1.93273
-1.93271
-1.93267
-1.93263
-1.93256
-1.93247
-1.93237
-1.93224
-1.9321
-1.93198
-1.93192
-1.93195
-1.93214
-1.93253
-1.93308
-1.93366
-1.93415
-1.93448
-1.93467
-1.93474
-1.9347
-1.93458
-1.93436
-1.93404
-1.9338
-1.8402
-1.44593
-0.783085
-0.0349553
0.425222
0.564416
0.581927
-1.93336
-1.93329
-1.9332
-1.93311
-1.93304
-1.93298
-1.93293
-1.93289
-1.93285
-1.93282
-1.93279
-1.93277
-1.93275
-1.93272
-1.9327
-1.93267
-1.93264
-1.9326
-1.93254
-1.93247
-1.93237
-1.93223
-1.93207
-1.93188
-1.93169
-1.93152
-1.93145
-1.93151
-1.9318
-1.93235
-1.93307
-1.93381
-1.9344
-1.93474
-1.93488
-1.93486
-1.93474
-1.93453
-1.93423
-1.93385
-1.93363
-1.84904
-1.49365
-0.855022
-0.0884934
0.407509
0.562183
0.581861
-1.93344
-1.93336
-1.93325
-1.93314
-1.93305
-1.93297
-1.93291
-1.93285
-1.9328
-1.93275
-1.93272
-1.93269
-1.93265
-1.93262
-1.93259
-1.93255
-1.9325
-1.93244
-1.93235
-1.93224
-1.9321
-1.93191
-1.93169
-1.93144
-1.9312
-1.93103
-1.93102
-1.93113
-1.9315
-1.93223
-1.93316
-1.93402
-1.93462
-1.93493
-1.93498
-1.93488
-1.93467
-1.93441
-1.93406
-1.93366
-1.93349
-1.86168
-1.53697
-0.917628
-0.135831
0.391492
0.560145
0.581801
-1.93352
-1.93343
-1.93329
-1.93315
-1.93303
-1.93294
-1.93285
-1.93278
-1.93271
-1.93265
-1.9326
-1.93256
-1.93252
-1.93248
-1.93243
-1.93237
-1.9323
-1.93221
-1.93209
-1.93194
-1.93174
-1.9315
-1.93123
-1.93095
-1.93075
-1.93057
-1.93062
-1.93101
-1.91948
-1.91543
-1.91872
-1.93183
-1.93483
-1.935
-1.93493
-1.93474
-1.93448
-1.9342
-1.93386
-1.93348
-1.93338
-1.87815
-1.57623
-0.971795
-0.177152
0.377278
0.558324
0.581747
-1.9336
-1.93348
-1.93331
-1.93314
-1.93299
-1.93287
-1.93277
-1.93267
-1.93258
-1.93251
-1.93245
-1.93239
-1.93234
-1.93228
-1.93221
-1.93213
-1.93203
-1.9319
-1.93174
-1.93154
-1.93129
-1.93101
-1.93076
-1.93047
-1.93029
-1.92738
-1.90668
-1.89136
-1.88296
-1.88276
-1.88959
-1.90163
-1.92236
-1.93483
-1.93462
-1.9344
-1.93415
-1.93389
-1.93361
-1.9333
-1.93327
-1.89699
-1.61125
-1.01824
-0.212807
0.364855
0.556725
0.5817
-1.93365
-1.93351
-1.93331
-1.9331
-1.93292
-1.93277
-1.93263
-1.93251
-1.93241
-1.93231
-1.93224
-1.93217
-1.93209
-1.93201
-1.93192
-1.93181
-1.93167
-1.9315
-1.93129
-1.93104
-1.93078
-1.93049
-1.93022
-1.93017
-1.90681
-1.88333
-1.86567
-1.85511
-1.85092
-1.85448
-1.86535
-1.88212
-1.90163
-1.93183
-1.93402
-1.93381
-1.93366
-1.9335
-1.93334
-1.93312
-1.93316
-1.91653
-1.6418
-1.05764
-0.243242
0.354139
0.555342
0.581659
-1.93368
-1.93352
-1.93328
-1.93302
-1.9328
-1.93262
-1.93245
-1.9323
-1.93217
-1.93206
-1.93196
-1.93187
-1.93178
-1.93167
-1.93155
-1.93139
-1.93121
-1.93099
-1.93076
-1.9305
-1.93019
-1.93001
-1.9143
-1.88593
-1.86118
-1.84165
-1.82714
-1.82001
-1.8205
-1.82877
-1.8442
-1.86535
-1.88959
-1.91872
-1.93316
-1.93307
-1.93308
-1.93308
-1.93305
-1.93294
-1.93304
-1.93318
-1.66785
-1.0906
-0.268975
0.344986
0.554156
0.581624
-1.93369
-1.9335
-1.93321
-1.9329
-1.93263
-1.9324
-1.9322
-1.93201
-1.93185
-1.93172
-1.9316
-1.93149
-1.93137
-1.93123
-1.93107
-1.93086
-1.93066
-1.93044
-1.93012
-1.92991
-1.921
-1.89283
-1.86518
-1.83995
-1.81752
-1.8007
-1.79062
-1.78841
-1.79437
-1.80815
-1.82877
-1.85448
-1.88276
-1.91543
-1.93223
-1.93235
-1.93253
-1.9327
-1.93281
-1.93281
-1.93294
-1.9331
-1.68973
-1.11769
-0.290582
0.337218
0.553148
0.581594
-1.93366
-1.93344
-1.93309
-1.93272
-1.93239
-1.93211
-1.93186
-1.93163
-1.93144
-1.93128
-1.93114
-1.93101
-1.93085
-1.93069
-1.93054
-1.93027
-1.92998
-1.92983
-1.92132
-1.897
-1.87047
-1.84382
-1.81776
-1.79404
-1.77511
-1.76286
-1.75843
-1.76237
-1.77458
-1.79437
-1.8205
-1.85092
-1.88296
-1.91948
-1.9315
-1.9318
-1.93214
-1.93245
-1.93266
-1.93274
-1.93288
-1.93304
-1.70789
-1.13991
-0.308521
0.330714
0.552302
0.581569
-1.93361
-1.93335
-1.93293
-1.93249
-1.93208
-1.93172
-1.93141
-1.93114
-1.9309
-1.93071
-1.93057
-1.93043
-1.93024
-1.93002
-1.92987
-1.92974
-1.91426
-1.89504
-1.87247
-1.84805
-1.82192
-1.79492
-1.7703
-1.7501
-1.73631
-1.73025
-1.73258
-1.74343
-1.76237
-1.78841
-1.82001
-1.85511
-1.89136
-1.93101
-1.93113
-1.93151
-1.93195
-1.93232
-1.93258
-1.9327
-1.93285
-1.933
-1.72277
-1.15808
-0.323321
0.32532
0.551601
0.581549
-1.93351
-1.93321
-1.93272
-1.93218
-1.93168
-1.93122
-1.93082
-1.93048
-1.9302
-1.92999
-1.92982
-1.9297
-1.92851
-1.91737
-1.90443
-1.88845
-1.87019
-1.84945
-1.82514
-1.79812
-1.7711
-1.7459
-1.72503
-1.71036
-1.70325
-1.70448
-1.71435
-1.73258
-1.75843
-1.79062
-1.82714
-1.86567
-1.90668
-1.93062
-1.93102
-1.93145
-1.93192
-1.9323
-1.93256
-1.9327
-1.93283
-1.93297
-1.73486
-1.17297
-0.335547
0.320853
0.551021
0.581532
-1.93339
-1.93304
-1.93246
-1.93181
-1.93117
-1.93058
-1.93007
-1.92964
-1.9293
-1.9291
-1.92175
-1.90946
-1.89648
-1.88262
-1.86693
-1.84829
-1.82534
-1.79995
-1.77285
-1.74551
-1.72028
-1.69924
-1.68424
-1.67664
-1.67732
-1.68664
-1.70448
-1.73025
-1.76286
-1.8007
-1.84165
-1.88333
-1.92738
-1.93057
-1.93103
-1.93152
-1.93198
-1.93234
-1.93258
-1.93271
-1.93283
-1.93294
-1.7446
-1.18525
-0.345748
0.317117
0.550536
0.581517
-1.93325
-1.93284
-1.93216
-1.93135
-1.93054
-1.92978
-1.92911
-1.92855
-1.92825
-1.91134
-1.89605
-1.88104
-1.86467
-1.84535
-1.82376
-1.79967
-1.77304
-1.7453
-1.71797
-1.69291
-1.67207
-1.65719
-1.64961
-1.65025
-1.65949
-1.67732
-1.70324
-1.73631
-1.77511
-1.81752
-1.86118
-1.90681
-1.93029
-1.93075
-1.9312
-1.93169
-1.9321
-1.93241
-1.93262
-1.93273
-1.93283
-1.93293
-1.7524
-1.1955
-0.354429
0.313925
0.550124
0.581505
-1.9331
-1.93262
-1.93181
-1.93082
-1.92979
-1.92879
-1.92789
-1.92733
-1.90678
-1.88715
-1.86722
-1.84607
-1.82347
-1.79871
-1.77214
-1.74417
-1.7157
-1.6882
-1.66334
-1.64289
-1.62846
-1.62134
-1.62239
-1.63203
-1.65025
-1.67664
-1.71036
-1.7501
-1.79404
-1.83995
-1.88593
-1.93017
-1.93047
-1.93095
-1.93144
-1.93188
-1.93224
-1.9325
-1.93267
-1.93276
-1.93284
-1.93292
-1.7586
-1.20423
-0.36201
0.311117
0.549761
0.581495
-1.93295
-1.93239
-1.93142
-1.93021
-1.9289
-1.92759
-1.92655
-1.90802
-1.88237
-1.85609
-1.82954
-1.80206
-1.77352
-1.74393
-1.71384
-1.68414
-1.6561
-1.63125
-1.61121
-1.59743
-1.59108
-1.59293
-1.60337
-1.62239
-1.64961
-1.68424
-1.72503
-1.7703
-1.81776
-1.86518
-1.9143
-1.93022
-1.93076
-1.93123
-1.93169
-1.93207
-1.93237
-1.93258
-1.93271
-1.93278
-1.93284
-1.93291
-1.76353
-1.21187
-0.368844
0.308555
0.549433
0.581485
-1.93282
-1.93218
-1.93101
-1.92952
-1.92787
-1.92626
-1.91471
-1.88204
-1.84941
-1.8163
-1.78302
-1.74945
-1.71583
-1.68269
-1.65093
-1.62177
-1.59659
-1.57679
-1.56367
-1.55823
-1.56115
-1.57273
-1.59293
-1.62134
-1.65719
-1.69924
-1.7459
-1.79492
-1.84382
-1.89283
-1.93001
-1.93049
-1.93101
-1.9315
-1.93191
-1.93223
-1.93247
-1.93264
-1.93275
-1.9328
-1.93285
-1.9329
-1.76765
-1.21893
-0.375326
0.306124
0.549127
0.581476
-1.93276
-1.932
-1.93061
-1.92877
-1.92671
-1.92508
-1.88608
-1.84772
-1.80773
-1.76765
-1.72788
-1.68897
-1.65163
-1.61684
-1.58574
-1.55958
-1.53963
-1.52696
-1.52241
-1.52652
-1.53947
-1.56115
-1.59108
-1.62846
-1.67207
-1.72028
-1.7711
-1.82192
-1.87047
-1.921
-1.93019
-1.93078
-1.93129
-1.93174
-1.9321
-1.93237
-1.93256
-1.93269
-1.93278
-1.93282
-1.93285
-1.93289
-1.77103
-1.22529
-0.381311
0.303847
0.548838
0.581468
-1.93282
-1.93191
-1.93024
-1.928
-1.92573
-1.89427
-1.85109
-1.80453
-1.75719
-1.71026
-1.66484
-1.62203
-1.58296
-1.54884
-1.52083
-1.50005
-1.4874
-1.48352
-1.48876
-1.50318
-1.52652
-1.55823
-1.59743
-1.64289
-1.69291
-1.74551
-1.79812
-1.84805
-1.897
-1.92991
-1.9305
-1.93104
-1.93154
-1.93194
-1.93224
-1.93247
-1.93263
-1.93273
-1.9328
-1.93283
-1.93286
-1.93289
-1.77373
-1.23099
-0.386821
0.301716
0.548563
0.58146
-1.93307
-1.93199
-1.93001
-1.92751
-1.90457
-1.85821
-1.80655
-1.75229
-1.69778
-1.64489
-1.59534
-1.55066
-1.51222
-1.48124
-1.45873
-1.44542
-1.44175
-1.44789
-1.46369
-1.48876
-1.52241
-1.56367
-1.61121
-1.66334
-1.71797
-1.77285
-1.82514
-1.87247
-1.92132
-1.93012
-1.93076
-1.93129
-1.93174
-1.93209
-1.93235
-1.93254
-1.93267
-1.93276
-1.93281
-1.93284
-1.93286
-1.93289
-1.77594
-1.23611
-0.391852
0.299745
0.548306
0.581452
-1.93372
-1.93246
-1.93023
-1.91118
-1.86432
-1.81196
-1.75251
-1.69094
-1.6302
-1.57295
-1.52137
-1.47726
-1.44201
-1.41664
-1.40176
-1.39764
-1.40423
-1.42118
-1.44789
-1.48352
-1.52696
-1.57679
-1.63125
-1.6882
-1.7453
-1.79995
-1.84945
-1.89504
-1.92983
-1.93044
-1.93099
-1.9315
-1.9319
-1.93221
-1.93244
-1.9326
-1.93271
-1.93278
-1.93282
-1.93285
-1.93286
-1.93288
-1.77782
-1.24067
-0.396382
0.297952
0.54807
0.581445
-1.93502
-1.93365
-1.90875
-1.86704
-1.81703
-1.75585
-1.689
-1.62102
-1.55575
-1.49635
-1.44531
-1.40446
-1.37497
-1.35745
-1.35203
-1.35844
-1.37611
-1.40423
-1.44175
-1.4874
-1.53963
-1.59659
-1.6561
-1.7157
-1.77304
-1.82534
-1.87019
-1.91426
-1.92998
-1.93066
-1.93121
-1.93167
-1.93203
-1.9323
-1.9325
-1.93264
-1.93273
-1.9328
-1.93283
-1.93286
-1.93286
-1.93288
-1.77951
-1.24472
-0.400391
0.296353
0.547857
0.581439
-1.91172
-1.89367
-1.8625
-1.81799
-1.7586
-1.68952
-1.61615
-1.54357
-1.47615
-1.41739
-1.36979
-1.33496
-1.31366
-1.30596
-1.31144
-1.32928
-1.35844
-1.39764
-1.44542
-1.50005
-1.55958
-1.62177
-1.68414
-1.74417
-1.79967
-1.84829
-1.88845
-1.92974
-1.93027
-1.93086
-1.93139
-1.93181
-1.93213
-1.93237
-1.93255
-1.93267
-1.93276
-1.93281
-1.93284
-1.93286
-1.93287
-1.93288
-1.78105
-1.24824
-0.403861
0.294962
0.547669
0.581433
-1.86407
-1.84612
-1.80937
-1.7555
-1.68797
-1.61237
-1.53452
-1.46002
-1.39354
-1.33862
-1.29754
-1.27144
-1.26052
-1.26427
-1.28167
-1.31144
-1.35203
-1.40176
-1.45873
-1.52083
-1.58574
-1.65093
-1.71384
-1.77214
-1.82376
-1.86693
-1.90443
-1.92987
-1.93054
-1.93107
-1.93155
-1.93192
-1.93221
-1.93243
-1.93259
-1.9327
-1.93278
-1.93282
-1.93285
-1.93287
-1.93287
-1.93288
-1.78242
-1.25121
-0.406767
0.293792
0.54751
0.581429
-1.80554
-1.78274
-1.73884
-1.67759
-1.60401
-1.52432
-1.44506
-1.37215
-1.31029
-1.26274
-1.2313
-1.2165
-1.21788
-1.23431
-1.26427
-1.30596
-1.35745
-1.41664
-1.48125
-1.54884
-1.61684
-1.68269
-1.74393
-1.79871
-1.84536
-1.88262
-1.91737
-1.93002
-1.93069
-1.93123
-1.93167
-1.93201
-1.93228
-1.93248
-1.93262
-1.93272
-1.93279
-1.93283
-1.93286
-1.93287
-1.93287
-1.93288
-1.78353
-1.25356
-0.409046
0.292869
0.547384
0.581425
-1.72398
-1.69752
-1.64858
-1.58251
-1.50577
-1.42564
-1.34909
-1.28207
-1.22898
-1.19253
-1.17382
-1.17266
-1.18792
-1.21788
-1.26052
-1.31366
-1.37497
-1.44201
-1.51222
-1.58296
-1.65163
-1.71583
-1.77352
-1.82347
-1.86467
-1.89648
-1.92851
-1.93024
-1.93085
-1.93137
-1.93178
-1.93209
-1.93234
-1.93252
-1.93265
-1.93275
-1.93281
-1.93284
-1.93286
-1.93288
-1.93287
-1.93288
-1.78426
-1.25515
-0.410588
0.292239
0.547296
0.581422
-1.61629
-1.58776
-1.53611
-1.46851
-1.39283
-1.31706
-1.24829
-1.19214
-1.15236
-1.13083
-1.12783
-1.14237
-1.17266
-1.2165
-1.27144
-1.33496
-1.40446
-1.47726
-1.55066
-1.62203
-1.68897
-1.74945
-1.80207
-1.84607
-1.88104
-1.90946
-1.9297
-1.93043
-1.93101
-1.93149
-1.93187
-1.93217
-1.93239
-1.93256
-1.93269
-1.93277
-1.93282
-1.93285
-1.93287
-1.93288
-1.93288
-1.93288
-1.78443
-1.25579
-0.411232
0.291967
0.547256
0.581421
-1.47925
-1.45036
-1.39927
-1.33469
-1.26548
-1.19993
-1.14485
-1.10506
-1.08334
-1.08054
-1.09595
-1.12783
-1.17382
-1.2313
-1.29754
-1.36979
-1.44532
-1.52137
-1.59534
-1.66484
-1.72789
-1.78302
-1.82955
-1.86722
-1.89605
-1.92175
-1.92982
-1.93057
-1.93114
-1.9316
-1.93196
-1.93224
-1.93245
-1.9326
-1.93272
-1.93279
-1.93284
-1.93286
-1.93288
-1.93289
-1.93288
-1.93288
-1.78386
-1.25526
-0.41077
0.292135
0.547276
0.581422
-1.31062
-1.28368
-1.23736
-1.18137
-1.12505
-1.07646
-1.04154
-1.02391
-1.025
-1.04444
-1.08054
-1.13083
-1.19253
-1.26274
-1.33862
-1.41739
-1.49635
-1.57295
-1.64489
-1.71026
-1.76765
-1.8163
-1.85609
-1.88715
-1.91134
-1.9291
-1.92999
-1.93071
-1.93128
-1.93172
-1.93206
-1.93231
-1.93251
-1.93265
-1.93275
-1.93282
-1.93286
-1.93288
-1.93288
-1.9329
-1.93288
-1.93288
-1.78232
-1.25328
-0.408958
0.292839
0.547368
0.581425
-1.11049
-1.08824
-1.05162
-1.01061
-0.974343
-0.949938
-0.941867
-0.952069
-0.980355
-1.025
-1.08334
-1.15236
-1.22898
-1.31029
-1.39354
-1.47616
-1.55575
-1.63021
-1.69778
-1.75719
-1.80773
-1.84941
-1.88237
-1.90678
-1.92825
-1.9293
-1.9302
-1.9309
-1.93144
-1.93185
-1.93217
-1.93241
-1.93258
-1.93271
-1.9328
-1.93285
-1.93288
-1.93289
-1.9329
-1.93291
-1.93289
-1.93288
-1.77958
-1.24954
-0.405539
0.294178
0.547546
0.58143
-0.881933
-0.867462
-0.845946
-0.826763
-0.817928
-0.824856
-0.849952
-0.893037
-0.952068
-1.02391
-1.10506
-1.19214
-1.28207
-1.37215
-1.46002
-1.54357
-1.62102
-1.69094
-1.75229
-1.80453
-1.84772
-1.88204
-1.90803
-1.92733
-1.92855
-1.92964
-1.93048
-1.93114
-1.93163
-1.93201
-1.9323
-1.93251
-1.93267
-1.93278
-1.93285
-1.93289
-1.93291
-1.93291
-1.93291
-1.93292
-1.93289
-1.93288
-1.77535
-1.24372
-0.400235
0.296253
0.547822
0.581438
-0.631868
-0.628352
-0.62741
-0.636706
-0.662179
-0.706763
-0.770233
-0.849951
-0.941866
-1.04154
-1.14485
-1.24829
-1.34909
-1.44506
-1.53452
-1.61615
-1.689
-1.75251
-1.80655
-1.85109
-1.88608
-1.91471
-1.92655
-1.92789
-1.92911
-1.93007
-1.93082
-1.93141
-1.93186
-1.9322
-1.93245
-1.93263
-1.93277
-1.93285
-1.93291
-1.93293
-1.93294
-1.93293
-1.93292
-1.93293
-1.9329
-1.93288
-1.76926
-1.23536
-0.392695
0.299193
0.548215
0.581449
-0.371099
-0.381484
-0.406016
-0.449487
-0.514778
-0.601633
-0.706762
-0.824854
-0.949936
-1.07646
-1.19993
-1.31706
-1.42564
-1.52431
-1.61236
-1.68952
-1.75585
-1.81196
-1.85821
-1.89427
-1.92508
-1.92626
-1.92759
-1.92879
-1.92978
-1.93058
-1.93122
-1.93172
-1.93211
-1.9324
-1.93262
-1.93277
-1.93287
-1.93294
-1.93297
-1.93298
-1.93298
-1.93296
-1.93294
-1.93294
-1.93291
-1.93288
-1.76082
-1.22384
-0.382386
0.303195
0.548749
0.581465
-0.113565
-0.140145
-0.193777
-0.275285
-0.383612
-0.514777
-0.662176
-0.817925
-0.974339
-1.12505
-1.26547
-1.39283
-1.50577
-1.60401
-1.68797
-1.7586
-1.81703
-1.86432
-1.90457
-1.92573
-1.92671
-1.92787
-1.9289
-1.92979
-1.93054
-1.93117
-1.93168
-1.93208
-1.93239
-1.93263
-1.9328
-1.93292
-1.93299
-1.93303
-1.93305
-1.93304
-1.93302
-1.93299
-1.93297
-1.93296
-1.93292
-1.93288
-1.74947
-1.20828
-0.368556
0.308548
0.549466
0.581486
0.124926
0.0810164
-0.00324244
-0.123877
-0.275283
-0.449484
-0.636702
-0.826758
-1.0106
-1.18136
-1.33468
-1.4685
-1.58251
-1.67759
-1.7555
-1.81799
-1.86704
-1.91118
-1.92751
-1.928
-1.92877
-1.92952
-1.93021
-1.93082
-1.93135
-1.93181
-1.93218
-1.93249
-1.93272
-1.9329
-1.93302
-1.9331
-1.93314
-1.93315
-1.93314
-1.93311
-1.93307
-1.93303
-1.933
-1.93299
-1.93293
-1.93289
-1.73489
-1.18792
-0.350519
0.31551
0.550403
0.581514
0.327825
0.267216
0.153848
-0.00324067
-0.193773
-0.406011
-0.627404
-0.845939
-1.05161
-1.23736
-1.39927
-1.5361
-1.64857
-1.73884
-1.80937
-1.8625
-1.90875
-1.93023
-1.93001
-1.93024
-1.93061
-1.93101
-1.93142
-1.93181
-1.93216
-1.93246
-1.93272
-1.93293
-1.93309
-1.93321
-1.93328
-1.93331
-1.93331
-1.93329
-1.93325
-1.9332
-1.93314
-1.93308
-1.93304
-1.93303
-1.93295
-1.93289
-1.71773
-1.16328
-0.328731
0.323887
0.551533
0.581547
0.478516
0.404215
0.267218
0.0810197
-0.14014
-0.381477
-0.628345
-0.867454
-1.08824
-1.28368
-1.45035
-1.58776
-1.69752
-1.78273
-1.84612
-1.89366
-1.93365
-1.93246
-1.93199
-1.93191
-1.932
-1.93218
-1.93239
-1.93262
-1.93284
-1.93304
-1.93321
-1.93335
-1.93344
-1.9335
-1.93352
-1.93351
-1.93348
-1.93343
-1.93336
-1.93329
-1.93322
-1.93314
-1.93309
-1.93307
-1.93297
-1.9329
-1.70076
-1.13823
-0.306642
0.332326
0.55267
0.58158
0.560807
0.478516
0.327827
0.12493
-0.113559
-0.371092
-0.63186
-0.881925
-1.11048
-1.31061
-1.47924
-1.61628
-1.72397
-1.80554
-1.86406
-1.91172
-1.93502
-1.93372
-1.93307
-1.93282
-1.93276
-1.93282
-1.93295
-1.9331
-1.93325
-1.93339
-1.93351
-1.93361
-1.93366
-1.93369
-1.93368
-1.93365
-1.9336
-1.93352
-1.93344
-1.93336
-1.93327
-1.93318
-1.93312
-1.9331
-1.93299
-1.93291
-1.68939
-1.12107
-0.291582
0.338042
0.55344
0.581603
)
;

boundaryField
{
    inlet
    {
        type            cyclic;
    }
    outlet
    {
        type            cyclic;
    }
    walls
    {
        type            calculated;
        value           nonuniform List<scalar> 
96
(
0.582448
0.582439
0.582421
0.582394
0.582359
0.582315
0.582263
0.582202
0.582134
0.582063
0.58199
0.581919
0.581853
0.581792
0.581738
0.58169
0.581649
0.581614
0.581584
0.581558
0.581538
0.581521
0.581506
0.581494
0.581484
0.581474
0.581465
0.581456
0.581448
0.581441
0.581434
0.581428
0.581422
0.581417
0.581414
0.581411
0.58141
0.58141
0.581413
0.581418
0.581426
0.581438
0.581454
0.581475
0.581503
0.581536
0.58157
0.581593
0.581593
0.58157
0.581536
0.581503
0.581475
0.581454
0.581438
0.581426
0.581418
0.581413
0.58141
0.58141
0.581411
0.581414
0.581417
0.581422
0.581428
0.581434
0.581441
0.581448
0.581456
0.581465
0.581474
0.581484
0.581494
0.581506
0.581521
0.581538
0.581558
0.581584
0.581614
0.581649
0.58169
0.581738
0.581792
0.581853
0.581919
0.58199
0.582063
0.582134
0.582202
0.582263
0.582315
0.582359
0.582394
0.582421
0.582439
0.582448
)
;
    }
    symPlanes
    {
        type            symmetry;
    }
}


// ************************************************************************* //
