/*--------------------------------*- C++ -*----------------------------------*\
| =========                 |                                                 |
| \\      /  F ield         | OpenFOAM: The Open Source CFD Toolbox           |
|  \\    /   O peration     | Version:  2506                                  |
|   \\  /    A nd           | Website:  www.openfoam.com                      |
|    \\/     M anipulation  |                                                 |
\*---------------------------------------------------------------------------*/
FoamFile
{
    version     2.0;
    format      ascii;
    arch        "LSB;label=32;scalar=64";
    class       volSymmTensorField;
    location    "2137";
    object      bijDelta;
}
// * * * * * * * * * * * * * * * * * * * * * * * * * * * * * * * * * * * * * //

dimensions      [0 0 0 0 0 0 0];

internalField   nonuniform List<symmTensor> 
2304
(
(-9.42315e-06 3.56201e-08 -4.82636e-09 -1.33091e-10 3.84709e-09 9.42328e-06)
(-9.6725e-06 9.98706e-08 -3.89038e-09 -1.02128e-09 9.82901e-09 9.67353e-06)
(-1.00417e-05 1.4878e-07 -2.62148e-09 -2.18962e-09 1.22045e-08 1.00439e-05)
(-1.04087e-05 1.82998e-07 -1.53038e-09 -3.20442e-09 1.16212e-08 1.04119e-05)
(-1.07131e-05 2.06796e-07 -8.32638e-10 -3.98305e-09 9.71788e-09 1.0717e-05)
(-1.09462e-05 2.24632e-07 -4.51511e-10 -4.60438e-09 7.68666e-09 1.09508e-05)
(-1.11199e-05 2.39168e-07 -2.52257e-10 -5.14085e-09 5.94527e-09 1.11251e-05)
(-1.12472e-05 2.51703e-07 -1.38765e-10 -5.63111e-09 4.47936e-09 1.12528e-05)
(-1.13367e-05 2.62784e-07 -7.38771e-11 -6.09042e-09 3.17543e-09 1.13428e-05)
(-1.13941e-05 2.72759e-07 -5.03025e-11 -6.52913e-09 1.96617e-09 1.14006e-05)
(-1.14236e-05 2.81944e-07 -7.03524e-11 -6.95855e-09 8.43616e-10 1.14305e-05)
(-1.14295e-05 2.90644e-07 -1.30856e-10 -7.39087e-09 -1.76495e-10 1.14369e-05)
(-1.1416e-05 2.99099e-07 -2.24056e-10 -7.83631e-09 -1.08639e-09 1.14238e-05)
(-1.13868e-05 3.07449e-07 -3.36801e-10 -8.301e-09 -1.89791e-09 1.13951e-05)
(-1.13448e-05 3.15724e-07 -4.55794e-10 -8.78591e-09 -2.63761e-09 1.13536e-05)
(-1.12924e-05 3.23853e-07 -5.65368e-10 -9.28674e-09 -3.33751e-09 1.13016e-05)
(-1.12307e-05 3.31656e-07 -6.49155e-10 -9.79275e-09 -4.02798e-09 1.12405e-05)
(-1.11607e-05 3.38891e-07 -6.9545e-10 -1.02883e-08 -4.72207e-09 1.1171e-05)
(-1.10833e-05 3.45285e-07 -6.91977e-10 -1.07543e-08 -5.4131e-09 1.1094e-05)
(-1.09993e-05 3.50546e-07 -6.27248e-10 -1.11685e-08 -6.09002e-09 1.10104e-05)
(-1.09098e-05 3.54369e-07 -4.88151e-10 -1.15063e-08 -6.75903e-09 1.09213e-05)
(-1.08155e-05 3.56432e-07 -2.60093e-10 -1.17412e-08 -7.46811e-09 1.08273e-05)
(-1.07162e-05 3.56382e-07 6.83639e-11 -1.18455e-08 -8.32194e-09 1.0728e-05)
(-1.061e-05 3.5387e-07 5.02481e-10 -1.17941e-08 -9.48419e-09 1.06218e-05)
(-1.04931e-05 3.48523e-07 1.05673e-09 -1.15643e-08 -1.11615e-08 1.05046e-05)
(-1.03599e-05 3.39966e-07 1.72742e-09 -1.11385e-08 -1.35753e-08 1.03711e-05)
(-1.02033e-05 3.27905e-07 2.4993e-09 -1.05101e-08 -1.69381e-08 1.02139e-05)
(-1.00152e-05 3.12188e-07 3.33686e-09 -9.68604e-09 -2.14176e-08 1.00249e-05)
(-9.78715e-06 2.92869e-07 4.19639e-09 -8.68944e-09 -2.71027e-08 9.79584e-06)
(-9.51188e-06 2.70206e-07 5.0463e-09 -7.55539e-09 -3.40012e-08 9.51944e-06)
(-9.18343e-06 2.44602e-07 5.91323e-09 -6.32334e-09 -4.21253e-08 9.18976e-06)
(-8.79663e-06 2.16029e-07 6.9737e-09 -5.00373e-09 -5.16891e-08 8.80163e-06)
(-8.34439e-06 1.84572e-07 8.02098e-09 -3.61209e-09 -6.28487e-08 8.348e-06)
(-7.82121e-06 1.51066e-07 8.89806e-09 -2.19342e-09 -7.54524e-08 7.8234e-06)
(-7.2246e-06 1.16746e-07 9.45556e-09 -7.91398e-10 -8.91071e-08 7.2254e-06)
(-6.55645e-06 8.32479e-08 9.50857e-09 5.60056e-10 -1.03083e-07 6.55589e-06)
(-5.82496e-06 5.25863e-08 8.85968e-09 1.84071e-09 -1.16196e-07 5.82312e-06)
(-5.04667e-06 2.69464e-08 7.38794e-09 3.04407e-09 -1.26842e-07 5.04362e-06)
(-4.2471e-06 8.19375e-09 5.17912e-09 4.17016e-09 -1.3328e-07 4.24293e-06)
(-3.45865e-06 -2.80678e-09 2.61957e-09 5.2109e-09 -1.34175e-07 3.45344e-06)
(-2.71536e-06 -6.709e-09 3.43096e-10 6.14202e-09 -1.29169e-07 2.70922e-06)
(-2.0459e-06 -5.90986e-09 -9.36772e-10 6.94298e-09 -1.1913e-07 2.03896e-06)
(-1.46784e-06 -3.47712e-09 -1.13847e-09 7.63044e-09 -1.05616e-07 1.46021e-06)
(-9.87981e-07 -1.45048e-09 -7.74364e-10 8.26924e-09 -9.00209e-08 9.79712e-07)
(-6.06378e-07 -3.93722e-10 -3.55692e-10 8.95999e-09 -7.31645e-08 5.97418e-07)
(-3.20347e-07 -4.38549e-11 -1.0276e-10 9.85353e-09 -5.53124e-08 3.10493e-07)
(-1.27434e-07 6.71287e-12 -1.34265e-11 1.12816e-08 -3.61992e-08 1.16152e-07)
(-2.86883e-08 6.89868e-13 -6.89772e-13 1.43441e-08 -1.43441e-08 1.43441e-08)
(-0.000306719 9.40361e-07 -9.78529e-08 -2.40403e-09 3.83574e-07 0.000306722)
(-0.000314393 2.65705e-06 -2.30479e-08 -1.94091e-08 9.7888e-07 0.000314412)
(-0.000325706 4.01276e-06 7.89612e-08 -4.49125e-08 1.21313e-06 0.000325751)
(-0.000336892 5.0179e-06 1.69281e-07 -7.07809e-08 1.1525e-06 0.000336962)
(-0.000346125 5.76214e-06 2.30999e-07 -9.32348e-08 9.61332e-07 0.000346219)
(-0.000353174 6.34301e-06 2.68249e-07 -1.12273e-07 7.58238e-07 0.000353286)
(-0.000358413 6.82232e-06 2.90586e-07 -1.28891e-07 5.84438e-07 0.000358542)
(-0.000362245 7.23324e-06 3.04956e-07 -1.43887e-07 4.38292e-07 0.000362389)
(-0.000364941 7.59199e-06 3.14392e-07 -1.57667e-07 3.08426e-07 0.000365098)
(-0.000366668 7.90936e-06 3.1968e-07 -1.70508e-07 1.88091e-07 0.000366838)
(-0.000367558 8.19459e-06 3.2093e-07 -1.82677e-07 7.64232e-08 0.000367741)
(-0.000367741 8.45605e-06 3.18538e-07 -1.94443e-07 -2.50818e-08 0.000367935)
(-0.000367341 8.7002e-06 3.13246e-07 -2.06026e-07 -1.1571e-07 0.000367547)
(-0.000366471 8.93093e-06 3.06109e-07 -2.1755e-07 -1.96674e-07 0.000366689)
(-0.000365219 9.14936e-06 2.98201e-07 -2.29018e-07 -2.70636e-07 0.000365448)
(-0.000363649 9.35413e-06 2.90698e-07 -2.4031e-07 -3.40794e-07 0.00036389)
(-0.000361802 9.54137e-06 2.84742e-07 -2.51175e-07 -4.1017e-07 0.000362053)
(-0.000359702 9.70577e-06 2.81149e-07 -2.61269e-07 -4.80056e-07 0.000359963)
(-0.000357371 9.84141e-06 2.80708e-07 -2.70195e-07 -5.49747e-07 0.000357641)
(-0.000354838 9.94206e-06 2.84191e-07 -2.77514e-07 -6.18068e-07 0.000355115)
(-0.000352133 1.00014e-05 2.92511e-07 -2.82761e-07 -6.85524e-07 0.000352416)
(-0.000349278 1.00127e-05 3.06736e-07 -2.85429e-07 -7.56752e-07 0.000349563)
(-0.000346266 9.96844e-06 3.27785e-07 -2.84975e-07 -8.42051e-07 0.000346551)
(-0.000343024 9.86029e-06 3.56234e-07 -2.80821e-07 -9.57721e-07 0.000343304)
(-0.000339447 9.6801e-06 3.92895e-07 -2.72401e-07 -1.12445e-06 0.000339719)
(-0.000335374 9.42018e-06 4.37432e-07 -2.59151e-07 -1.36448e-06 0.000335633)
(-0.000330589 9.07436e-06 4.88529e-07 -2.40488e-07 -1.69944e-06 0.00033083)
(-0.000324841 8.63946e-06 5.43527e-07 -2.15784e-07 -2.14682e-06 0.000325057)
(-0.000317873 8.11655e-06 5.99091e-07 -1.84303e-07 -2.71656e-06 0.000318057)
(-0.000309445 7.51149e-06 6.52523e-07 -1.45106e-07 -3.41058e-06 0.000309591)
(-0.000299363 6.83511e-06 7.05465e-07 -9.67277e-08 -4.23106e-06 0.00029946)
(-0.000287455 6.09147e-06 7.66263e-07 -3.55698e-08 -5.20098e-06 0.00028749)
(-0.00027348 5.28667e-06 8.2308e-07 4.40387e-08 -6.33904e-06 0.000273436)
(-0.000257238 4.44018e-06 8.64998e-07 1.49141e-07 -7.63341e-06 0.000257089)
(-0.000238614 3.57773e-06 8.81954e-07 2.88925e-07 -9.04857e-06 0.000238326)
(-0.000217612 2.73151e-06 8.61814e-07 4.73841e-07 -1.05146e-05 0.000217139)
(-0.000194421 1.94023e-06 7.91965e-07 7.12288e-07 -1.19127e-05 0.000193709)
(-0.000169488 1.24658e-06 6.65067e-07 1.00474e-06 -1.3075e-05 0.000168483)
(-0.000143567 6.90513e-07 4.87347e-07 1.33735e-06 -1.38113e-05 0.00014223)
(-0.000117683 2.9893e-07 2.84659e-07 1.68027e-06 -1.39651e-05 0.000116002)
(-9.29928e-05 7.72373e-08 1.00148e-07 1.99704e-06 -1.34806e-05 9.09957e-05)
(-7.05516e-05 -7.90787e-09 -1.6243e-08 2.26536e-06 -1.24375e-05 6.82863e-05)
(-5.11096e-05 -1.87489e-08 -5.40054e-08 2.49097e-06 -1.10049e-05 4.86186e-05)
(-3.49888e-05 -7.89031e-09 -4.44467e-08 2.69592e-06 -9.33056e-06 3.22929e-05)
(-2.21674e-05 4.54657e-10 -2.30245e-08 2.89354e-06 -7.46792e-06 1.92739e-05)
(-1.21572e-05 2.34625e-09 -7.45861e-09 2.96423e-06 -5.22015e-06 9.19293e-06)
(-3.78314e-06 8.39632e-10 -8.39603e-10 1.89157e-06 -1.89157e-06 1.89157e-06)
(-1.27434e-07 1.34271e-11 -6.71214e-12 1.16152e-07 -3.61991e-08 1.12816e-08)
(-0.00157828 3.64661e-06 -1.48589e-06 -1.14065e-09 3.39366e-06 0.00157828)
(-0.00158782 1.02697e-05 -1.03596e-06 -2.08467e-08 8.51242e-06 0.00158784)
(-0.00159963 1.54776e-05 -4.44577e-07 -8.37044e-08 1.02825e-05 0.00159972)
(-0.00160866 1.93739e-05 3.37088e-08 -1.76923e-07 9.52505e-06 0.00160884)
(-0.00161412 2.23111e-05 3.23048e-07 -2.70806e-07 7.78489e-06 0.00161439)
(-0.00161705 2.46271e-05 4.70436e-07 -3.52378e-07 6.04985e-06 0.00161741)
(-0.00161852 2.65346e-05 5.42716e-07 -4.21805e-07 4.61631e-06 0.00161894)
(-0.00161919 2.81586e-05 5.83147e-07 -4.82337e-07 3.44183e-06 0.00161968)
(-0.00161946 2.95726e-05 6.09705e-07 -5.36369e-07 2.42046e-06 0.00162)
(-0.00161953 3.08277e-05 6.2632e-07 -5.85413e-07 1.48933e-06 0.00162012)
(-0.00161952 3.19626e-05 6.32629e-07 -6.30551e-07 6.33856e-07 0.00162015)
(-0.00161948 3.3006e-05 6.29539e-07 -6.72671e-07 -1.40755e-07 0.00162016)
(-0.00161944 3.39765e-05 6.1999e-07 -7.12428e-07 -8.33532e-07 0.00162015)
(-0.00161937 3.4883e-05 6.08998e-07 -7.50135e-07 -1.45666e-06 0.00162012)
(-0.00161925 3.57262e-05 6.02274e-07 -7.85725e-07 -2.03241e-06 0.00162004)
(-0.00161908 3.65004e-05 6.06678e-07 -8.18777e-07 -2.58677e-06 0.0016199)
(-0.00161881 3.71943e-05 6.29296e-07 -8.4854e-07 -3.14448e-06 0.00161966)
(-0.00161842 3.77938e-05 6.75504e-07 -8.74109e-07 -3.71697e-06 0.00161929)
(-0.00161787 3.82832e-05 7.50342e-07 -8.94555e-07 -4.29978e-06 0.00161877)
(-0.00161714 3.8646e-05 8.58548e-07 -9.08935e-07 -4.884e-06 0.00161805)
(-0.00161619 3.88653e-05 1.00553e-06 -9.16255e-07 -5.47298e-06 0.0016171)
(-0.00161498 3.89236e-05 1.19789e-06 -9.15289e-07 -6.10254e-06 0.0016159)
(-0.00161349 3.88024e-05 1.44185e-06 -9.04328e-07 -6.85556e-06 0.00161439)
(-0.00161168 3.84823e-05 1.74256e-06 -8.80841e-07 -7.86925e-06 0.00161256)
(-0.00160941 3.79443e-05 2.10838e-06 -8.41175e-07 -9.3226e-06 0.00161025)
(-0.00160647 3.71752e-05 2.54147e-06 -7.79955e-07 -1.1418e-05 0.00160725)
(-0.00160255 3.61652e-05 3.0394e-06 -6.88522e-07 -1.43705e-05 0.00160323)
(-0.00159715 3.49078e-05 3.59226e-06 -5.5313e-07 -1.8385e-05 0.0015977)
(-0.00158962 3.33995e-05 4.18492e-06 -3.52977e-07 -2.36337e-05 0.00158997)
(-0.00157905 3.16444e-05 4.80191e-06 -5.81893e-08 -3.0251e-05 0.0015791)
(-0.00156429 2.96733e-05 5.45066e-06 3.75092e-07 -3.83992e-05 0.00156392)
(-0.00154394 2.74953e-05 6.18835e-06 1.02614e-06 -4.84649e-05 0.00154291)
(-0.00151603 2.51171e-05 6.94506e-06 2.0227e-06 -6.08739e-05 0.001514)
(-0.00147817 2.2562e-05 7.64771e-06 3.54449e-06 -7.58377e-05 0.00147463)
(-0.00142762 1.98421e-05 8.21444e-06 5.84274e-06 -9.33779e-05 0.00142178)
(-0.00136141 1.69634e-05 8.52465e-06 9.23846e-06 -0.000113141 0.00135218)
(-0.00127679 1.39388e-05 8.41862e-06 1.40693e-05 -0.000134098 0.00126272)
(-0.00117195 1.08125e-05 7.7333e-06 2.05577e-05 -0.000154297 0.00115139)
(-0.00104707 7.69892e-06 6.38122e-06 2.86099e-05 -0.000170917 0.00101846)
(-0.000905343 4.82169e-06 4.45363e-06 3.76506e-05 -0.000180833 0.000867692)
(-0.00075354 2.56408e-06 2.2961e-06 4.66998e-05 -0.000181708 0.000706841)
(-0.000601438 1.17098e-06 5.95106e-07 5.4894e-05 -0.000173213 0.000546544)
(-0.000457744 5.0943e-07 -2.41752e-07 6.17913e-05 -0.000156417 0.000395952)
(-0.000327103 2.55326e-07 -3.86786e-07 6.66511e-05 -0.000131755 0.000260452)
(-0.000205898 1.46479e-07 -2.3341e-07 6.51757e-05 -9.57689e-05 0.000140723)
(-8.67308e-05 6.10842e-08 -6.10833e-08 4.33654e-05 -4.33654e-05 4.33654e-05)
(-1.21571e-05 7.45871e-09 -2.34613e-09 9.19292e-06 -5.22014e-06 2.96422e-06)
(-3.20347e-07 1.02761e-10 4.38575e-11 3.10493e-07 -5.53123e-08 9.85352e-09)
(0.0048683 -7.45007e-06 2.21249e-05 -3.6284e-08 -1.52658e-05 -0.00486826)
(0.00520788 -2.30214e-05 2.22168e-05 -2.17049e-07 -4.08348e-05 -0.00520766)
(0.00572157 -3.97265e-05 2.22054e-05 -2.32034e-07 -5.40483e-05 -0.00572133)
(0.00624646 -5.67595e-05 2.23791e-05 4.07156e-08 -5.46696e-05 -0.0062465)
(0.00669464 -7.28234e-05 2.28545e-05 4.51158e-07 -4.80263e-05 -0.00669509)
(0.00704663 -8.71606e-05 2.35167e-05 8.6039e-07 -3.94596e-05 -0.00704749)
(0.00731369 -9.95781e-05 2.41731e-05 1.22368e-06 -3.14144e-05 -0.00731491)
(0.00751156 -0.000110172 2.46958e-05 1.54017e-06 -2.42113e-05 -0.0075131)
(0.00765197 -0.000119093 2.50444e-05 1.81519e-06 -1.75194e-05 -0.00765379)
(0.007743 -0.000126483 2.52344e-05 2.05127e-06 -1.11365e-05 -0.00774505)
(0.00779134 -0.000132471 2.52979e-05 2.24951e-06 -5.11385e-06 -0.00779359)
(0.0078036 -0.000137186 2.5258e-05 2.41161e-06 4.04263e-07 -0.00780601)
(0.00778618 -0.000140749 2.51236e-05 2.53999e-06 5.33957e-06 -0.00778872)
(0.00774478 -0.000143266 2.48879e-05 2.63678e-06 9.73681e-06 -0.00774742)
(0.00768382 -0.000144815 2.45353e-05 2.70308e-06 1.37313e-05 -0.00768653)
(0.00760643 -0.000145451 2.40392e-05 2.73897e-06 1.74931e-05 -0.00760917)
(0.00751447 -0.000145208 2.33678e-05 2.7437e-06 2.11827e-05 -0.00751721)
(0.00740885 -0.000144111 2.24962e-05 2.71675e-06 2.48645e-05 -0.00741156)
(0.00729027 -0.000142194 2.14016e-05 2.65884e-06 2.84933e-05 -0.00729293)
(0.00715952 -0.000139504 2.00657e-05 2.57179e-06 3.19964e-05 -0.00716209)
(0.00701744 -0.000136098 1.84721e-05 2.45752e-06 3.53826e-05 -0.0070199)
(0.00686447 -0.000132033 1.66042e-05 2.316e-06 3.88567e-05 -0.00686678)
(0.00670032 -0.000127351 1.44514e-05 2.14239e-06 4.28916e-05 -0.00670246)
(0.00652901 -0.00012215 1.20183e-05 1.92541e-06 4.82417e-05 -0.00653093)
(0.00634105 -0.000116291 9.28976e-06 1.64002e-06 5.57104e-05 -0.00634269)
(0.00612852 -0.000109705 6.29307e-06 1.24864e-06 6.60718e-05 -0.00612976)
(0.0058824 -0.000102326 3.09167e-06 6.93137e-07 7.98803e-05 -0.0058831)
(0.00559267 -9.40963e-05 -1.97428e-07 -1.08494e-07 9.72393e-05 -0.00559256)
(0.00524955 -8.49892e-05 -3.40751e-06 -1.257e-06 0.000117578 -0.00524829)
(0.00484481 -7.50553e-05 -6.32299e-06 -2.85397e-06 0.000139527 -0.00484195)
(0.0043736 -6.45524e-05 -8.73848e-06 -4.98059e-06 0.000161094 -0.00436862)
(0.00383561 -5.38377e-05 -1.05713e-05 -7.71795e-06 0.000180212 -0.00382789)
(0.00323198 -4.32179e-05 -1.15243e-05 -1.10349e-05 0.000193522 -0.00322094)
(0.0025698 -3.28656e-05 -1.13507e-05 -1.45433e-05 0.000195657 -0.00255526)
(0.00186318 -2.28807e-05 -9.87053e-06 -1.72094e-05 0.000179787 -0.00184597)
(0.00113383 -1.33784e-05 -6.99947e-06 -1.68818e-05 0.000138032 -0.00111695)
(0.000412138 -4.63419e-06 -2.87329e-06 -9.76152e-06 6.28703e-05 -0.000402377)
(-0.000262693 2.74504e-06 1.9873e-06 9.73408e-06 -4.97163e-05 0.000252958)
(-0.000844616 7.77286e-06 6.54317e-06 4.79488e-05 -0.000195658 0.000796667)
(-0.0012865 9.41608e-06 9.26559e-06 0.000109203 -0.000358748 0.0011773)
(-0.00155002 7.81491e-06 8.5507e-06 0.000191901 -0.000510611 0.00135812)
(-0.00161804 4.79806e-06 4.90369e-06 0.000286579 -0.000617737 0.00133146)
(-0.00149804 2.4247e-06 1.07026e-06 0.000376181 -0.000649633 0.00112186)
(-0.00119188 1.30595e-06 -8.19205e-07 0.000423603 -0.000570478 0.00076828)
(-0.000694607 7.37358e-07 -7.37351e-07 0.000347304 -0.000347304 0.000347304)
(-0.000205898 2.33412e-07 -1.46476e-07 0.000140723 -9.57689e-05 6.51756e-05)
(-2.21674e-05 2.30247e-08 -4.54396e-10 1.92738e-05 -7.46791e-06 2.89354e-06)
(-6.06377e-07 3.55695e-10 3.93728e-10 5.97417e-07 -7.31644e-08 8.95997e-09)
(0.0364774 -2.95949e-05 0.000250197 -6.37145e-07 -0.00015544 -0.0364767)
(0.0374089 -9.43954e-05 0.000238451 -4.0325e-06 -0.000400148 -0.0374049)
(0.0387896 -0.000169761 0.000219658 -5.7576e-06 -0.000502944 -0.0387839)
(0.0401703 -0.00025114 0.000201937 -4.27738e-06 -0.000485815 -0.040166)
(0.0413282 -0.000330249 0.000188641 -1.44098e-06 -0.000412093 -0.0413267)
(0.0422233 -0.000401353 0.000179585 1.26414e-06 -0.000329885 -0.0422246)
(0.0428919 -0.000462493 0.000173291 3.46529e-06 -0.000257346 -0.0428953)
(0.0433795 -0.000513948 0.000168553 5.22982e-06 -0.000195072 -0.0433848)
(0.0437209 -0.000556699 0.000164762 6.65856e-06 -0.000139202 -0.0437276)
(0.0439403 -0.00059168 0.000161733 7.80232e-06 -8.73261e-05 -0.0439481)
(0.0440567 -0.000619613 0.000159404 8.68325e-06 -3.9199e-05 -0.0440653)
(0.0440875 -0.000641047 0.000157657 9.31998e-06 4.58299e-06 -0.0440968)
(0.0440489 -0.00065642 0.000156286 9.73372e-06 4.37965e-05 -0.0440587)
(0.0439549 -0.00066608 0.000155008 9.94293e-06 7.90404e-05 -0.0439649)
(0.0438164 -0.000670335 0.00015353 9.95936e-06 0.000111533 -0.0438264)
(0.0436414 -0.000669499 0.000151535 9.78865e-06 0.00014274 -0.0436512)
(0.0434346 -0.000663921 0.000148722 9.43261e-06 0.000174069 -0.043444)
(0.0431978 -0.000654026 0.000144882 8.89658e-06 0.000206236 -0.0432067)
(0.0429313 -0.000640321 0.000139827 8.19493e-06 0.000239148 -0.0429395)
(0.0426339 -0.000623358 0.000133393 7.34708e-06 0.000272513 -0.0426412)
(0.0423034 -0.000603689 0.000125404 6.3645e-06 0.000306701 -0.0423098)
(0.0419362 -0.000581827 0.000115635 5.22671e-06 0.000343735 -0.0419414)
(0.0415303 -0.000558203 0.000103781 3.8491e-06 0.000387952 -0.0415341)
(0.0410936 -0.000533179 8.96351e-05 2.04709e-06 0.000445943 -0.0410957)
(0.0405967 -0.0005066 7.32215e-05 -5.18467e-07 0.000525652 -0.0405962)
(0.0400167 -0.000478517 5.46927e-05 -4.41762e-06 0.000635812 -0.0400122)
(0.0393276 -0.000448925 3.43405e-05 -1.05721e-05 0.000784633 -0.039317)
(0.0384993 -0.000417744 1.27293e-05 -2.03891e-05 0.00097853 -0.0384789)
(0.0374994 -0.000384742 -9.38719e-06 -3.58777e-05 0.00122095 -0.0374636)
(0.036294 -0.000349385 -3.09012e-05 -5.97438e-05 0.00151183 -0.0362342)
(0.0348502 -0.000311409 -5.08837e-05 -9.55962e-05 0.00184885 -0.0347546)
(0.0331302 -0.000274479 -7.3915e-05 -0.000148589 0.00223048 -0.0329816)
(0.0311293 -0.000243732 -9.4035e-05 -0.000225579 0.00265141 -0.0309037)
(0.0288463 -0.000218808 -0.000109716 -0.000334394 0.00309548 -0.0285119)
(0.0262881 -0.00019846 -0.000120493 -0.000482871 0.00353567 -0.0258052)
(0.0234714 -0.000180458 -0.000126123 -0.000676009 0.00393002 -0.0227954)
(0.0204202 -0.000161401 -0.000126527 -0.000909941 0.0042171 -0.0195102)
(0.0171634 -0.000137316 -0.000121267 -0.00116255 0.00431592 -0.0160008)
(0.0137337 -0.000105207 -0.000108665 -0.00138269 0.00413466 -0.0123511)
(0.0101728 -6.52895e-05 -8.53692e-05 -0.0014828 0.00359084 -0.00868996)
(0.00654794 -2.86731e-05 -4.89794e-05 -0.00134309 0.00264438 -0.00520485)
(0.00303964 -6.47431e-06 -1.50618e-05 -0.000855021 0.00136676 -0.00218462)
(5.62206e-05 -3.37244e-08 -1.09648e-07 -2.12666e-05 2.72646e-05 -3.4954e-05)
(-0.0015455 3.83961e-07 -3.83949e-07 0.000772748 -0.000772748 0.000772748)
(-0.00119188 8.19216e-07 -1.30594e-06 0.000768281 -0.000570478 0.000423602)
(-0.000327103 3.86788e-07 -2.55322e-07 0.000260452 -0.000131755 6.6651e-05)
(-3.49888e-05 4.4447e-08 7.89078e-09 3.22928e-05 -9.33055e-06 2.69592e-06)
(-9.8798e-07 7.74368e-10 1.45049e-09 9.79711e-07 -9.00208e-08 8.26923e-09)
(0.0733134 -2.14057e-05 0.000219218 -2.29581e-06 -0.000410642 -0.0733111)
(0.0741773 -8.19614e-05 0.000175617 -1.47175e-05 -0.0010476 -0.0741625)
(0.0754749 -0.00017677 0.000111404 -2.20409e-05 -0.00130137 -0.0754529)
(0.0767977 -0.000295663 4.84915e-05 -1.90476e-05 -0.00124475 -0.0767787)
(0.0779299 -0.000419815 -2.58799e-06 -1.18392e-05 -0.00104798 -0.077918)
(0.0788156 -0.000534879 -4.09807e-05 -5.18299e-06 -0.000833019 -0.0788104)
(0.0794774 -0.000634451 -6.96774e-05 -1.71022e-07 -0.000644461 -0.0794772)
(0.0799565 -0.000717258 -9.15829e-05 3.50021e-06 -0.000483501 -0.07996)
(0.0802898 -0.00078421 -0.00010853 6.20676e-06 -0.000340457 -0.0802961)
(0.0805057 -0.000836567 -0.000121466 8.14379e-06 -0.000209015 -0.0805139)
(0.0806265 -0.000875373 -0.000131014 9.40494e-06 -8.79515e-05 -0.0806359)
(0.0806712 -0.000901365 -0.000137859 1.00661e-05 2.1906e-05 -0.0806813)
(0.0806572 -0.000915089 -0.000142819 1.02069e-05 0.000120501 -0.0806674)
(0.0805997 -0.000916994 -0.000146813 9.89642e-06 0.000209605 -0.0806096)
(0.0805117 -0.000907599 -0.000150681 9.18183e-06 0.000292386 -0.0805209)
(0.0804037 -0.000887646 -0.000155213 8.08882e-06 0.00037259 -0.0804118)
(0.0802824 -0.000858155 -0.000161044 6.62623e-06 0.00045388 -0.0802891)
(0.0801495 -0.000820445 -0.000168482 4.80337e-06 0.00053846 -0.0801543)
(0.0800009 -0.000776022 -0.000177729 2.64053e-06 0.000626872 -0.0800035)
(0.0798275 -0.000726337 -0.000188942 1.51576e-07 0.000719449 -0.0798277)
(0.0796156 -0.000672594 -0.000202373 -2.70209e-06 0.000818335 -0.0796129)
(0.0793498 -0.000615607 -0.000218507 -6.09434e-06 0.000929816 -0.0793437)
(0.0790265 -0.000555893 -0.000238211 -1.04404e-05 0.00106568 -0.079016)
(0.0786397 -0.00049377 -0.000262274 -1.65297e-05 0.00124276 -0.0786231)
(0.0781546 -0.000429075 -0.000290671 -2.57579e-05 0.00148206 -0.0781288)
(0.0775463 -0.000361532 -0.000323122 -4.04701e-05 0.00180713 -0.0775058)
(0.0767893 -0.000290879 -0.000359112 -6.44186e-05 0.00224121 -0.0767248)
(0.0758549 -0.000216907 -0.000397559 -0.00010334 0.00280493 -0.0757516)
(0.0747126 -0.000139271 -0.000437267 -0.000165594 0.00351441 -0.074547)
(0.0733293 -5.67804e-05 -0.000476176 -0.000262983 0.00438144 -0.0730663)
(0.0716796 3.41124e-05 -0.000509121 -0.000412776 0.0054202 -0.0712668)
(0.0697399 0.000119584 -0.000530503 -0.000638661 0.00663928 -0.0691013)
(0.0674984 0.000184794 -0.000544195 -0.000972404 0.00803933 -0.066526)
(0.0649737 0.000228657 -0.000551035 -0.00145681 0.00961573 -0.0635169)
(0.0621985 0.000249212 -0.000551781 -0.0021449 0.0113456 -0.0600536)
(0.0592056 0.000243702 -0.000547736 -0.00309664 0.0131774 -0.0561089)
(0.0559929 0.000210627 -0.000539698 -0.00436593 0.0150095 -0.051627)
(0.0524604 0.000152435 -0.000526273 -0.00596925 0.0166559 -0.0464912)
(0.0483138 8.13512e-05 -0.000502245 -0.00782144 0.0177951 -0.0404924)
(0.0429251 3.68531e-05 -0.000453486 -0.00961125 0.0178942 -0.0333139)
(0.0351111 2.48164e-05 -0.000325712 -0.0105525 0.016099 -0.0245586)
(0.0235656 3.57438e-05 -0.000144951 -0.00924703 0.0115069 -0.0143186)
(0.00968412 2.12431e-05 -2.12431e-05 -0.00484206 0.00484206 -0.00484206)
(5.62185e-05 1.09644e-07 3.37229e-08 -3.49527e-05 2.72636e-05 -2.12658e-05)
(-0.00149804 -1.07025e-06 -2.42469e-06 0.00112186 -0.000649633 0.000376181)
(-0.000457743 2.41755e-07 -5.09424e-07 0.000395952 -0.000156417 6.17912e-05)
(-5.11095e-05 5.40057e-08 1.87496e-08 4.86186e-05 -1.10049e-05 2.49096e-06)
(-1.46784e-06 1.13847e-09 3.47714e-09 1.46021e-06 -1.05615e-07 7.63042e-09)
(0.0926377 1.11882e-06 7.22088e-05 -4.77028e-06 -0.000664273 -0.092633)
(0.0925213 -1.83479e-05 3.59542e-05 -3.06093e-05 -0.00168159 -0.0924907)
(0.0923302 -8.08726e-05 -1.17256e-05 -4.62702e-05 -0.00206686 -0.0922839)
(0.0921139 -0.00017636 -5.63113e-05 -4.13403e-05 -0.00195805 -0.0920725)
(0.0919097 -0.000284235 -9.10145e-05 -2.82646e-05 -0.00163566 -0.0918814)
(0.0917378 -0.000387652 -0.000116748 -1.65442e-05 -0.00129065 -0.0917212)
(0.0916029 -0.000477748 -0.000136723 -8.23991e-06 -0.000990571 -0.0915947)
(0.0915019 -0.000551256 -0.000153408 -2.62747e-06 -0.000736715 -0.0914992)
(0.0914284 -0.000607841 -0.000168129 1.13796e-06 -0.000513981 -0.0914295)
(0.0913764 -0.00064803 -0.000181402 3.52149e-06 -0.00031193 -0.0913799)
(0.0913409 -0.000672421 -0.000193505 4.76802e-06 -0.000127431 -0.0913457)
(0.0913175 -0.000681404 -0.00020485 5.06861e-06 3.95189e-05 -0.0913226)
(0.0913022 -0.000675231 -0.000216029 4.6061e-06 0.000189701 -0.0913068)
(0.091291 -0.000654141 -0.000227767 3.53329e-06 0.000326186 -0.0912945)
(0.0912805 -0.000618612 -0.000240684 1.95216e-06 0.000453811 -0.0912824)
(0.0912675 -0.000569615 -0.000255355 -8.78681e-08 0.000578148 -0.0912675)
(0.0912504 -0.000508618 -0.000272238 -2.58628e-06 0.000704736 -0.0912478)
(0.0912297 -0.000437539 -0.000291518 -5.56849e-06 0.000837497 -0.0912242)
(0.0912088 -0.0003584 -0.000313494 -9.07575e-06 0.000978707 -0.0911998)
(0.0911937 -0.000272815 -0.000338719 -1.32046e-05 0.00113113 -0.0911805)
(0.0911917 -0.000181636 -0.000368155 -1.81986e-05 0.00130072 -0.0911735)
(0.0912092 -8.47565e-05 -0.000403163 -2.46093e-05 0.00149946 -0.0911846)
(0.0912486 1.86452e-05 -0.000445303 -3.35405e-05 0.00174722 -0.0912151)
(0.0913141 0.000129445 -0.000496313 -4.69854e-05 0.00207148 -0.0912671)
(0.0914112 0.000249175 -0.000558023 -6.83974e-05 0.00250684 -0.0913428)
(0.0915427 0.000379858 -0.000631525 -0.000103549 0.0030933 -0.0914391)
(0.0917106 0.000523429 -0.000717719 -0.000161721 0.00387359 -0.0915489)
(0.0919172 0.000681316 -0.00081678 -0.000257316 0.00489143 -0.0916599)
(0.0921644 0.000853979 -0.000928909 -0.000411927 0.00619048 -0.0917525)
(0.0924542 0.00103964 -0.00105273 -0.000657011 0.00781439 -0.0917972)
(0.0927841 0.00123691 -0.00117931 -0.00103824 0.00981122 -0.0917458)
(0.0914059 0.00140825 -0.00122864 -0.00159296 0.0120119 -0.0898129)
(0.0897504 0.00156176 -0.00125612 -0.00240603 0.0145434 -0.0873444)
(0.0881671 0.00168616 -0.0012735 -0.0035818 0.0174449 -0.0845853)
(0.0867926 0.00176447 -0.00127921 -0.005253 0.0207239 -0.0815396)
(0.0857427 0.00177658 -0.00127203 -0.00758221 0.024359 -0.0781605)
(0.0850117 0.00170189 -0.0012526 -0.0107403 0.0282466 -0.0742714)
(0.0843102 0.0015252 -0.00122398 -0.0148356 0.0320997 -0.0694746)
(0.0828245 0.00124577 -0.00118985 -0.0197408 0.0352823 -0.0630837)
(0.0789574 0.000956554 -0.0011375 -0.024769 0.0366326 -0.0541884)
(0.0698869 0.000656761 -0.00086422 -0.0280536 0.0342571 -0.0418333)
(0.0510152 0.000366061 -0.000366061 -0.0255076 0.0255076 -0.0255076)
(0.0235656 0.000144951 -3.57437e-05 -0.0143186 0.0115069 -0.00924701)
(0.00303963 1.50618e-05 6.4743e-06 -0.00218461 0.00136676 -0.000855019)
(-0.00161804 -4.90368e-06 -4.79805e-06 0.00133146 -0.000617737 0.000286579)
(-0.000601438 -5.95102e-07 -1.17097e-06 0.000546544 -0.000173213 5.48939e-05)
(-7.05516e-05 1.62433e-08 7.90891e-09 6.82862e-05 -1.24375e-05 2.26536e-06)
(-2.0459e-06 9.36777e-10 5.9099e-09 2.03895e-06 -1.19129e-07 6.94297e-09)
(0.0905793 2.18263e-05 0.000541088 -7.07969e-06 -0.000800103 -0.0905722)
(0.0905363 4.65603e-05 0.000506505 -4.60412e-05 -0.00203948 -0.0904902)
(0.0904361 3.11852e-05 0.000456845 -7.12557e-05 -0.00253554 -0.0903649)
(0.0902846 -1.89459e-05 0.000407588 -6.56959e-05 -0.00243322 -0.0902189)
(0.0901082 -8.7116e-05 0.000366126 -4.68724e-05 -0.00205588 -0.0900614)
(0.0899373 -0.000157474 0.000332596 -2.94412e-05 -0.00163458 -0.0899079)
(0.0897896 -0.000219968 0.000304506 -1.70877e-05 -0.00125829 -0.0897725)
(0.0896698 -0.000269364 0.000279765 -8.92994e-06 -0.000934994 -0.0896609)
(0.089575 -0.000303586 0.000257181 -3.67719e-06 -0.000649848 -0.0895714)
(0.0894998 -0.000321902 0.000236234 -5.48193e-07 -0.000391311 -0.0894992)
(0.0894384 -0.000324111 0.000216559 9.05623e-07 -0.000155449 -0.0894393)
(0.0893856 -0.00031013 0.000197592 1.03625e-06 5.8289e-05 -0.0893867)
(0.0893365 -0.000279988 0.000178573 1.66606e-07 0.000251341 -0.0893367)
(0.0892859 -0.000233901 0.000158642 -1.44091e-06 0.000427718 -0.0892844)
(0.0892287 -0.000172515 0.000137151 -3.61774e-06 0.00059341 -0.0892251)
(0.089161 -9.71085e-05 0.000113557 -6.29677e-06 0.000755261 -0.0891547)
(0.0890817 -9.39748e-06 8.74392e-05 -9.51206e-06 0.000920269 -0.0890722)
(0.0889944 8.87165e-05 5.8629e-05 -1.33739e-05 0.00109415 -0.088981)
(0.0889081 0.000195682 2.66382e-05 -1.80635e-05 0.0012816 -0.08889)
(0.0888362 0.000310926 -9.49566e-06 -2.39026e-05 0.0014888 -0.0888123)
(0.0887929 0.000435003 -5.12951e-05 -3.14999e-05 0.00172603 -0.0887614)
(0.0887884 0.000569477 -0.000100772 -4.20321e-05 0.00201069 -0.0887464)
(0.0888282 0.000716586 -0.000160145 -5.76836e-05 0.00236903 -0.0887705)
(0.0889145 0.000878382 -0.000231462 -8.22621e-05 0.00283538 -0.0888322)
(0.0890468 0.00105704 -0.000317095 -0.000122187 0.00345141 -0.0889246)
(0.089221 0.00125419 -0.00041823 -0.00018791 0.00426384 -0.0890331)
(0.0894306 0.00147035 -0.000535615 -0.000295808 0.0053215 -0.0891348)
(0.0896685 0.00170377 -0.000668365 -0.000470617 0.00667283 -0.0891979)
(0.0899271 0.00194932 -0.000814707 -0.000748347 0.00836366 -0.0891788)
(0.0901991 0.00219532 -0.00096958 -0.00117963 0.0104348 -0.0890194)
(0.0904761 0.00242322 -0.00112641 -0.00183232 0.0129167 -0.0886437)
(0.0907311 0.00263259 -0.00126492 -0.00280063 0.0158437 -0.0879305)
(0.0909195 0.0028159 -0.00137237 -0.00420493 0.0192198 -0.0867146)
(0.0909968 0.00293421 -0.00143724 -0.00618108 0.0229894 -0.0848157)
(0.0909199 0.00294948 -0.0014468 -0.00887431 0.027042 -0.0820456)
(0.0906663 0.00283563 -0.00139873 -0.0124192 0.0312011 -0.0782471)
(0.0902706 0.00259163 -0.00131269 -0.0169188 0.0352342 -0.0733518)
(0.0898762 0.00224806 -0.00123337 -0.0224413 0.0388974 -0.0674349)
(0.0897967 0.0018457 -0.00122398 -0.029054 0.0420037 -0.0607428)
(0.0905482 0.00154947 -0.00137041 -0.0369008 0.0444911 -0.0536474)
(0.0925458 0.00144274 -0.00144274 -0.0462729 0.0462729 -0.0462729)
(0.0698869 0.00086422 -0.00065676 -0.0418333 0.0342571 -0.0280536)
(0.0351111 0.000325712 -2.4816e-05 -0.0245586 0.016099 -0.0105525)
(0.00654793 4.89792e-05 2.86731e-05 -0.00520484 0.00264438 -0.00134309)
(-0.00155002 -8.5507e-06 -7.8149e-06 0.00135812 -0.000510611 0.000191901)
(-0.00075354 -2.29609e-06 -2.56407e-06 0.00070684 -0.000181708 4.66997e-05)
(-9.29927e-05 -1.00147e-07 -7.72359e-08 9.09957e-05 -1.34806e-05 1.99704e-06)
(-2.71536e-06 -3.43091e-10 6.70904e-09 2.70922e-06 -1.29169e-07 6.14201e-09)
(0.0896804 3.95409e-05 0.000814709 -9.88043e-06 -0.000940346 -0.0896705)
(0.0897112 0.000101265 0.000767818 -6.51651e-05 -0.00241492 -0.0896461)
(0.0897064 0.000125789 0.000694184 -0.000103286 -0.00304024 -0.0896031)
(0.0896274 0.000116955 0.000617865 -9.79202e-05 -0.00295967 -0.0895294)
(0.0894869 8.84656e-05 0.000550282 -7.17849e-05 -0.00253274 -0.0894151)
(0.0893217 5.42495e-05 0.000493408 -4.62392e-05 -0.00203103 -0.0892755)
(0.0891617 2.39641e-05 0.000445022 -2.76413e-05 -0.00156888 -0.089134)
(0.0890202 3.6037e-06 0.000402726 -1.52526e-05 -0.00116443 -0.0890049)
(0.0888983 -3.63855e-06 0.00036491 -7.30279e-06 -0.000805058 -0.088891)
(0.0887916 3.99267e-06 0.00033065 -2.59006e-06 -0.000478817 -0.088789)
(0.0886945 2.74368e-05 0.000299178 -3.66569e-07 -0.000181031 -0.0886941)