/*--------------------------------*- C++ -*----------------------------------*\
| =========                 |                                                 |
| \\      /  F ield         | OpenFOAM: The Open Source CFD Toolbox           |
|  \\    /   O peration     | Version:  2506                                  |
|   \\  /    A nd           | Website:  www.openfoam.com                      |
|    \\/     M anipulation  |                                                 |
\*---------------------------------------------------------------------------*/
FoamFile
{
    version     2.0;
    format      ascii;
    arch        "LSB;label=32;scalar=64";
    class       volScalarField;
    location    "2137";
    object      I1;
}
// * * * * * * * * * * * * * * * * * * * * * * * * * * * * * * * * * * * * * //

dimensions      [0 0 0 0 0 0 0];

internalField   nonuniform List<scalar> 
2304
(
1.62019e-05
1.66329e-05
1.72708e-05
1.79047e-05
1.84304e-05
1.88331e-05
1.91333e-05
1.93534e-05
1.95085e-05
1.9608e-05
1.96596e-05
1.96705e-05
1.96479e-05
1.95984e-05
1.95271e-05
1.94375e-05
1.93322e-05
1.92125e-05
1.90798e-05
1.89358e-05
1.87823e-05
1.86203e-05
1.84494e-05
1.82663e-05
1.80646e-05
1.78345e-05
1.75637e-05
1.72383e-05
1.68439e-05
1.6368e-05
1.58005e-05
1.51325e-05
1.43519e-05
1.34494e-05
1.2421e-05
1.127e-05
1.00107e-05
8.67159e-06
7.29661e-06
5.94128e-06
4.66393e-06
3.5137e-06
2.5207e-06
1.69651e-06
1.04118e-06
5.50025e-07
2.18793e-07
4.92545e-08
0.0005542
0.000568894
0.000590632
0.000612215
0.000630104
0.000643805
0.000654018
0.00066151
0.00066679
0.000670185
0.000671947
0.000672326
0.000671568
0.000669893
0.000667473
0.000664433
0.000660855
0.000656784
0.000652267
0.000647358
0.000642116
0.000636584
0.000630748
0.000624467
0.000617541
0.000609661
0.000600414
0.000589329
0.000575923
0.000559764
0.000540506
0.000517864
0.000491428
0.000460888
0.000426103
0.000387166
0.000344517
0.000299059
0.000252219
0.00020586
0.000162017
0.000122477
8.84526e-05
6.03998e-05
3.819e-05
2.09117e-05
6.49899e-06
2.18793e-07
0.0046689
0.00477811
0.00493933
0.00509936
0.00523236
0.00533462
0.00541109
0.00546725
0.00550689
0.00553246
0.00554591
0.00554913
0.00554392
0.00553189
0.00551427
0.00549191
0.00546533
0.00543479
0.00540053
0.00536288
0.00532217
0.00527866
0.00523223
0.00518328
0.00512962
0.00506864
0.00499726
0.00491192
0.00480888
0.00468461
0.0045362
0.00436134
0.0041566
0.00391928
0.00364773
0.00334176
0.00300341
0.00263798
0.00225497
0.00186816
0.00149451
0.00115184
0.000850978
0.000593231
0.000365512
0.000150955
2.09117e-05
5.50024e-07
0.0166962
0.016984
0.017406
0.0178223
0.0181669
0.0184311
0.0186281
0.0187721
0.0188734
0.0189388
0.0189734
0.0189822
0.0189699
0.0189405
0.0188969
0.0188414
0.0187751
0.0186985
0.018612
0.0185159
0.0184106
0.0182963
0.0181725
0.0180419
0.0178971
0.0177312
0.0175363
0.0173028
0.01702
0.0166772
0.0162644
0.0157727
0.0151912
0.01451
0.0137206
0.0128162
0.0117935
0.0106548
0.00941136
0.00808699
0.00672011
0.00536187
0.00403583
0.00270296
0.00135841
0.000365512
3.819e-05
1.04118e-06
0.032541
0.0328689
0.0333478
0.0338187
0.0342078
0.0345051
0.0347252
0.0348849
0.0349962
0.0350676
0.0351054
0.0351156
0.0351033
0.035073
0.0350282
0.0349714
0.0349041
0.0348268
0.0347396
0.0346419
0.0345329
0.0344114
0.0342765
0.0341307
0.0339638
0.0337679
0.0335333
0.0332489
0.0329015
0.0324769
0.0319594
0.0313294
0.0305766
0.0296891
0.0286541
0.027458
0.0260837
0.024507
0.0226905
0.0205734
0.0180551
0.0149982
0.0112222
0.0067576
0.00270296
0.000593231
6.03997e-05
1.69651e-06
0.0433982
0.0436156
0.0439399
0.0442679
0.0445465
0.0447632
0.0449245
0.0450409
0.0451218
0.0451742
0.0452035
0.0452144
0.0452111
0.0451972
0.045176
0.0451498
0.0451204
0.0450881
0.045052
0.0450098
0.0449583
0.0448936
0.0448148
0.0447204
0.0446018
0.0444527
0.0442663
0.0440351
0.0437506
0.0434033
0.0429849
0.042487
0.0419029
0.0412336
0.0404829
0.0396547
0.0387425
0.0377094
0.0364523
0.0347376
0.0320546
0.0274986
0.0202584
0.0112222
0.00403583
0.000850977
8.84525e-05
2.5207e-06
0.04805
0.04805
0.04805
0.04805
0.04805
0.04805
0.04805
0.04805
0.04805
0.04805
0.04805
0.04805
0.04805
0.04805
0.04805
0.04805
0.04805
0.04805
0.04805
0.04805
0.04805
0.04805
0.04805
0.04805
0.04805
0.04805
0.04805
0.04805
0.04805
0.04805
0.04805
0.0477312
0.0473571
0.0469963
0.0466805
0.0464375
0.0462665
0.0460999
0.0457449
0.0448107
0.0425316
0.0372763
0.0274986
0.0149982
0.00536187
0.00115184
0.000122477
3.5137e-06
0.04805
0.04805
0.04805
0.04805
0.04805
0.04805
0.04805
0.04805
0.04805
0.04805
0.04805
0.04805
0.04805
0.04805
0.04805
0.04805
0.04805
0.04805
0.04805
0.04805
0.04805
0.04805
0.04805
0.04805
0.04805
0.04805
0.04805
0.04805
0.04805
0.04805
0.04805
0.04805
0.04805
0.04805
0.04805
0.04805
0.04805
0.04805
0.04805
0.04805
0.0479953
0.0425316
0.0320546
0.0180551
0.00672011
0.00149451
0.000162017
4.66393e-06
0.04805
0.04805
0.04805
0.04805
0.04805
0.04805
0.04805
0.04805
0.04805
0.04805
0.04805
0.04805
0.04805
0.04805
0.04805
0.04805
0.04805
0.04805
0.04805
0.04805
0.04805
0.04805
0.04805
0.04805
0.04805
0.04805
0.04805
0.04805
0.04805
0.04805
0.04805
0.04805
0.04805
0.04805
0.04805
0.04805
0.04805
0.04805
0.04805
0.04805
0.04805
0.0448107
0.0347376
0.0205734
0.00808699
0.00186815
0.00020586
5.94127e-06
0.04805
0.04805
0.04805
0.04805
0.04805
0.04805
0.04805
0.04805
0.04805
0.04805
0.04805
0.04805
0.04805
0.04805
0.04805
0.04805
0.04805
0.04805
0.04805
0.04805
0.04805
0.04805
0.04805
0.04805
0.04805
0.04805
0.04805
0.04805
0.04805
0.04805
0.04805
0.04805
0.04805
0.04805
0.04805
0.04805
0.04805
0.04805
0.04805
0.04805
0.04805
0.0457449
0.0364523
0.0226905
0.00941136
0.00225497
0.000252219
7.2966e-06
0.04805
0.04805
0.04805
0.04805
0.04805
0.04805
0.04805
0.04805
0.04805
0.04805
0.04805
0.04805
0.04805
0.04805
0.04805
0.04805
0.04805
0.04805
0.04805
0.04805
0.04805
0.04805
0.04805
0.04805
0.04805
0.04805
0.04805
0.04805
0.04805
0.04805
0.04805
0.04805
0.04805
0.04805
0.04805
0.04805
0.04805
0.04805
0.04805
0.04805
0.04805
0.0460999
0.0377094
0.024507
0.0106548
0.00263798
0.000299059
8.67159e-06
0.04805
0.04805
0.04805
0.04805
0.04805
0.04805
0.04805
0.04805
0.04805
0.04805
0.04805
0.04805
0.04805
0.04805
0.04805
0.04805
0.04805
0.04805
0.04805
0.04805
0.04805
0.04805
0.04805
0.04805
0.04805
0.04805
0.04805
0.04805
0.04805
0.04805
0.04805
0.04805
0.04805
0.04805
0.04805
0.04805
0.04805
0.04805
0.04805
0.04805
0.04805
0.0462665
0.0387425
0.0260837
0.0117935
0.00300341
0.000344517
1.00106e-05
0.04805
0.04805
0.04805
0.04805
0.04805
0.04805
0.04805
0.04805
0.04805
0.04805
0.04805
0.04805
0.04805
0.04805
0.04805
0.04805
0.04805
0.04805
0.04805
0.04805
0.04805
0.04805
0.04805
0.04805
0.04805
0.04805
0.04805
0.04805
0.04805
0.04805
0.04805
0.04805
0.04805
0.04805
0.04805
0.04805
0.04805
0.04805
0.04805
0.04805
0.04805
0.0464375
0.0396547
0.0274579
0.0128162
0.00334176
0.000387166
1.12699e-05
0.04805
0.04805
0.04805
0.04805
0.04805
0.04805
0.04805
0.04805
0.04805
0.04805
0.04805
0.04805
0.04805
0.04805
0.04805
0.04805
0.04805
0.04805
0.04805
0.04805
0.04805
0.04805
0.04805
0.04805
0.04805
0.04805
0.04805
0.04805
0.04805
0.04805
0.04805
0.04805
0.04805
0.04805
0.04805
0.04805
0.04805
0.04805
0.04805
0.04805
0.04805
0.0466805
0.0404829
0.0286541
0.0137206
0.00364773
0.000426102
1.2421e-05
0.04805
0.04805
0.04805
0.04805
0.04805
0.04805
0.04805
0.04805
0.04805
0.04805
0.04805
0.04805
0.04805
0.04805
0.04805
0.04805
0.04805
0.04805
0.04805
0.04805
0.04805
0.04805
0.04805
0.04805
0.04805
0.04805
0.04805
0.04805
0.0478198
0.0477273
0.0477714
0.0480037
0.04805
0.04805
0.04805
0.04805
0.04805
0.04805
0.04805
0.04805
0.04805
0.0469963
0.0412336
0.0296891
0.01451
0.00391927
0.000460888
1.34494e-05
0.04805
0.04805
0.04805
0.04805
0.04805
0.04805
0.04805
0.04805
0.04805
0.04805
0.04805
0.04805
0.04805
0.04805
0.04805
0.04805
0.04805
0.04805
0.04805
0.04805
0.04805
0.04805
0.04805
0.04805
0.04805
0.0479921
0.0475924
0.0472894
0.0471152
0.047096
0.0472103
0.0474262
0.0478131
0.04805
0.04805
0.04805
0.04805
0.04805
0.04805
0.04805
0.04805
0.0473571
0.0419029
0.0305766
0.0151912
0.0041566
0.000491428
1.43519e-05
0.04805
0.04805
0.04805
0.04805
0.04805
0.04805
0.04805
0.04805
0.04805
0.04805
0.04805
0.04805
0.04805
0.04805
0.04805
0.04805
0.04805
0.04805
0.04805
0.04805
0.04805
0.04805
0.04805
0.04805
0.0476032
0.0471485
0.0468014
0.0465884
0.0464943
0.046548
0.0467433
0.0470558
0.0474262
0.0480037
0.04805
0.04805
0.04805
0.04805
0.04805
0.04805
0.04805
0.0477312
0.0424869
0.0313294
0.0157727
0.00436133
0.000517863
1.51325e-05
0.04805
0.04805
0.04805
0.04805
0.04805
0.04805
0.04805
0.04805
0.04805
0.04805
0.04805
0.04805
0.04805
0.04805
0.04805
0.04805
0.04805
0.04805
0.04805
0.04805
0.04805
0.04805
0.0477508
0.0472054
0.0467261
0.046345
0.0460567
0.045908
0.0459048
0.0460525
0.0463406
0.0467433
0.0472103
0.0477714
0.04805
0.04805
0.04805
0.04805
0.04805
0.04805
0.04805
0.04805
0.0429849
0.0319594
0.0162644
0.0045362
0.000540505
1.58005e-05
0.04805
0.04805
0.04805
0.04805
0.04805
0.04805
0.04805
0.04805
0.04805
0.04805
0.04805
0.04805
0.04805
0.04805
0.04805
0.04805
0.04805
0.04805
0.04805
0.04805
0.0478813
0.047343
0.0468101
0.0463219
0.0458848
0.0455527
0.0453487
0.0452959
0.0454008
0.045659
0.0460525
0.046548
0.047096
0.0477273
0.04805
0.04805
0.04805
0.04805
0.04805
0.04805
0.04805
0.04805
0.0434033
0.0324769
0.0166772
0.00468461
0.000559763
1.6368e-05
0.04805
0.04805
0.04805
0.04805
0.04805
0.04805
0.04805
0.04805
0.04805
0.04805
0.04805
0.04805
0.04805
0.04805
0.04805
0.04805
0.04805
0.04805
0.04789
0.0474271
0.0469172
0.0464032
0.0458988
0.0454362
0.0450641
0.0448195
0.0447253
0.044793
0.0450224
0.0454008
0.0459048
0.0464943
0.0471152
0.0478198
0.04805
0.04805
0.04805
0.04805
0.04805
0.04805
0.04805
0.04805
0.0437506
0.0329015
0.01702
0.00480887
0.000575923
1.68439e-05
0.04805
0.04805
0.04805
0.04805
0.04805
0.04805
0.04805
0.04805
0.04805
0.04805
0.04805
0.04805
0.04805
0.04805
0.04805
0.04805
0.0477585
0.0473932
0.0469599
0.0464903
0.0459863
0.0454621
0.0449821
0.0445858
0.0443124
0.0441877
0.0442258
0.04443
0.044793
0.0452959
0.045908
0.0465884
0.0472894
0.04805
0.04805
0.04805
0.04805
0.04805
0.04805
0.04805
0.04805
0.04805
0.0440351
0.0332489
0.0173027
0.00491191
0.000589328
1.72383e-05
0.04805
0.04805
0.04805
0.04805
0.04805
0.04805
0.04805
0.04805
0.04805
0.04805
0.04805
0.04805
0.0480292
0.0478196
0.0475753
0.0472701
0.0469201
0.0465228
0.0460546
0.0455314
0.0450063
0.0445149
0.0441059
0.0438158
0.0436715
0.0436894
0.0438756
0.0442258
0.0447253
0.0453487
0.0460567
0.0468014
0.0475924
0.04805
0.04805
0.04805
0.04805
0.04805
0.04805
0.04805
0.04805
0.04805
0.0442663
0.0335333
0.0175363
0.00499726
0.000600414
1.75637e-05
0.04805
0.04805
0.04805
0.04805
0.04805
0.04805
0.04805
0.04805
0.04805
0.04805
0.0479109
0.0476775
0.0474294
0.0471644
0.0468648
0.0465071
0.0460647
0.0455739
0.0450482
0.0445166
0.0440244
0.0436118
0.0433153
0.0431621
0.0431699
0.0433462
0.0436894
0.0441877
0.0448195
0.0455527
0.046345
0.0471485
0.0479921
0.04805
0.04805
0.04805
0.04805
0.04805
0.04805
0.04805
0.04805
0.04805
0.0444527
0.0337679
0.0177312
0.00506863
0.00060966
1.78345e-05
0.04805
0.04805
0.04805
0.04805
0.04805
0.04805
0.04805
0.04805
0.04805
0.0477276
0.047434
0.0471461
0.0468318
0.0464599
0.0460435
0.0455771
0.0450608
0.0445221
0.0439897
0.0434999
0.0430908
0.0427965
0.042644
0.0426512
0.0428266
0.0431699
0.0436715
0.0443124
0.0450641
0.0458848
0.0467261
0.0476032
0.04805
0.04805
0.04805
0.04805
0.04805
0.04805
0.04805
0.04805
0.04805
0.04805
0.0446018
0.0339638
0.0178971
0.00512962
0.000617541
1.80645e-05
0.04805
0.04805
0.04805
0.04805
0.04805
0.04805
0.04805
0.04805
0.0476586
0.0472808
0.0468971
0.0464889
0.0460514
0.0455716
0.0450562
0.0445125
0.0439577
0.0434204
0.0429335
0.042531
0.0422452
0.0421014
0.0421168
0.0423
0.0426512
0.0431621
0.0438158
0.0445858
0.0454362
0.0463219
0.0472054
0.04805
0.04805
0.04805
0.04805
0.04805
0.04805
0.04805
0.04805
0.04805
0.04805
0.04805
0.0447204
0.0341307
0.0180419
0.00518328
0.000624467
1.82663e-05
0.04805
0.04805
0.04805
0.04805
0.04805
0.04805
0.04805
0.0477025
0.0472095
0.0467024
0.0461887
0.0456558
0.0451008
0.0445245
0.0439375
0.0433569
0.0428073
0.0423189
0.0419235
0.0416496
0.0415202
0.0415511
0.0417499
0.0421168
0.042644
0.0433153
0.0441059
0.0449821
0.0458988
0.0468101
0.0477508
0.04805
0.04805
0.04805
0.04805
0.04805
0.04805
0.04805
0.04805
0.04805
0.04805
0.04805
0.0448148
0.0342765
0.0181725
0.00523223
0.000630747
1.84493e-05
0.04805
0.04805
0.04805
0.04805
0.04805
0.04805
0.0478472
0.0472238
0.0465947
0.045954
0.0453077
0.0446539
0.0439974
0.0433486
0.0427256
0.0421521
0.0416555
0.0412633
0.0410011
0.040889
0.0409403
0.0411613
0.0415511
0.0421014
0.0427965
0.0436118
0.0445149
0.0454621
0.0464032
0.047343
0.04805
0.04805
0.04805
0.04805
0.04805
0.04805
0.04805
0.04805
0.04805
0.04805
0.04805
0.04805
0.0448936
0.0344114
0.0182963
0.00527866
0.000636583
1.86203e-05
0.04805
0.04805
0.04805
0.04805
0.04805
0.04805
0.0473162
0.0465807
0.045809
0.0450312
0.0442564
0.0434954
0.0427631
0.0420788
0.0414652
0.0409475
0.0405505
0.0402959
0.0402003
0.0402743
0.0405218
0.0409403
0.0415202
0.0422452
0.0430908
0.0440244
0.0450063
0.0459863
0.0469172
0.0478813
0.04805
0.04805
0.04805
0.04805
0.04805
0.04805
0.04805
0.04805
0.04805
0.04805
0.04805
0.04805
0.0449583
0.0345329
0.0184106
0.00532217
0.000642115
1.87823e-05
0.04805
0.04805
0.04805
0.04805
0.04805
0.0474741
0.0466547
0.0457619
0.0448465
0.0439335
0.0430459
0.0422058
0.0414363
0.0407618
0.040206
0.0397911
0.0395354
0.0394518
0.0395476
0.0398234
0.0402743
0.040889
0.0416496
0.042531
0.0434999
0.0445166
0.0455314
0.0464903
0.0474271
0.04805
0.04805
0.04805
0.04805
0.04805
0.04805
0.04805
0.04805
0.04805
0.04805
0.04805
0.04805
0.04805
0.0450098
0.0346419
0.0185159
0.00536287
0.000647357
1.89358e-05
0.04805
0.04805
0.04805
0.04805
0.0476515
0.0467855
0.0458027
0.0447602
0.0437042
0.0426734
0.0417024
0.0408228
0.0400627
0.0394473
0.038997
0.0387272
0.038647
0.0387598
0.0390627
0.0395476
0.0402003
0.0410011
0.0419235
0.0429335
0.0439897
0.0450482
0.0460546
0.0469599
0.04789
0.04805
0.04805
0.04805
0.04805
0.04805
0.04805
0.04805
0.04805
0.04805
0.04805
0.04805
0.04805
0.04805
0.045052
0.0347396
0.018612
0.00540053
0.000652266
1.90798e-05
0.04805
0.04805
0.04805
0.0477328
0.0468721
0.0458889
0.0447566
0.0435717
0.0423936
0.0412757
0.0402629
0.0393922
0.0386927
0.0381857
0.0378845
0.0377952
0.0379167
0.0382423
0.0387598
0.0394519
0.0402959
0.0412633
0.0423189
0.0434204
0.0445221
0.0455739
0.0465228
0.0473932
0.04805
0.04805
0.04805
0.04805
0.04805
0.04805
0.04805
0.04805
0.04805
0.04805
0.04805
0.04805
0.04805
0.04805
0.0450881
0.0348268
0.0186985
0.00543478
0.000656783
1.92124e-05
0.04805
0.04805
0.0476189
0.0468663
0.0459426
0.0447906
0.043515
0.0422052
0.0409376
0.0397766
0.0387731
0.0379653
0.0373782
0.0370256
0.036911
0.0370297
0.0373705
0.0379167
0.038647
0.0395354
0.0405505
0.0416555
0.0428073
0.0439577
0.0450608
0.0460647
0.0469201
0.0477585
0.04805
0.04805
0.04805
0.04805
0.04805
0.04805
0.04805
0.04805
0.04805
0.04805
0.04805
0.04805
0.04805
0.04805
0.0451204
0.0349041
0.0187751
0.00546532
0.000660853
1.93321e-05
0.0475688
0.0472521
0.0466994
0.0458909
0.0447866
0.0434819
0.0420797
0.0406799
0.03937
0.0382209
0.0372848
0.0365957
0.0361707
0.036013
0.0361149
0.036461
0.0370297
0.0377952
0.0387272
0.0397911
0.0409475
0.0421521
0.0433569
0.0445125
0.0455772
0.0465071
0.0472701
0.04805
0.04805
0.04805
0.04805
0.04805
0.04805
0.04805
0.04805
0.04805
0.04805
0.04805
0.04805
0.04805
0.04805
0.04805
0.0451498
0.0349713
0.0188414
0.0054919
0.000664432
1.94375e-05
0.0466162
0.0463002
0.0456374
0.044647
0.0433852
0.0419531
0.0404629
0.039025
0.0377334
0.0366601
0.0358531
0.0353377
0.0351198
0.0351907
0.0355312
0.0361149
0.036911
0.0378846
0.038997
0.040206
0.0414652
0.0427256
0.0439375
0.0450562
0.0460435
0.0468648
0.0475753
0.04805
0.04805
0.04805
0.04805
0.04805
0.04805
0.04805
0.04805
0.04805
0.04805
0.04805
0.04805
0.04805
0.04805
0.04805
0.045176
0.0350281
0.0188969
0.00551426
0.000667471
1.9527e-05
0.0454508
0.045039
0.0442371
0.0431021
0.0417201
0.0402061
0.0386868
0.0372789
0.0360775
0.0351499
0.0345347
0.0342449
0.0342734
0.0345988
0.0351907
0.036013
0.0370256
0.0381857
0.0394473
0.0407618
0.0420788
0.0433486
0.0445245
0.0455716
0.04646
0.0471644
0.0478196
0.04805
0.04805
0.04805
0.04805
0.04805
0.04805
0.04805
0.04805
0.04805
0.04805
0.04805
0.04805
0.04805
0.04805
0.04805
0.0451972
0.0350729
0.0189404
0.00553188
0.000669891
1.95984e-05
0.0438477
0.0433642
0.0424609
0.0412277
0.0397793
0.0382521
0.0367819
0.035487
0.034457
0.0337486
0.0333866
0.0333695
0.0336763
0.0342734
0.0351198
0.0361707
0.0373782
0.0386927
0.0400628
0.0414363
0.0427632
0.0439974
0.0451009
0.0460514
0.0468318
0.0474294
0.0480292
0.04805
0.04805
0.04805
0.04805
0.04805
0.04805
0.04805
0.04805
0.04805
0.04805
0.04805
0.04805
0.04805
0.04805
0.04805
0.045211
0.0351033
0.0189699
0.00554391
0.000671567
1.96479e-05
0.0417565
0.0412295
0.0402682
0.0389978
0.0375621
0.0361124
0.0347879
0.0337015
0.0329305
0.0325158
0.0324653
0.0327614
0.0333695
0.0342449
0.0353377
0.0365957
0.0379653
0.0393922
0.0408228
0.0422058
0.0434954
0.0446539
0.0456558
0.0464889
0.0471462
0.0476775
0.04805
0.04805
0.04805
0.04805
0.04805
0.04805
0.04805
0.04805
0.04805
0.04805
0.04805
0.04805
0.04805
0.04805
0.04805
0.04805
0.0452144
0.0351156
0.0189822
0.00554911
0.000672325
1.96704e-05
0.0391213
0.038583
0.0376251
0.0364032
0.0350818
0.0338204
0.0327536
0.0319805
0.0315597
0.0315115
0.0318245
0.0324653
0.0333866
0.0345347
0.0358531
0.0372848
0.0387732
0.040263
0.0417025
0.043046
0.0442564
0.0453077
0.0461887
0.0468972
0.0474341
0.047911
0.04805
0.04805
0.04805
0.04805
0.04805
0.04805
0.04805
0.04805
0.04805
0.04805
0.04805
0.04805
0.04805
0.04805
0.04805
0.04805
0.0452034
0.0351054
0.0189733
0.0055459
0.000671945
1.96595e-05
0.0359051
0.0353994
0.0345242
0.0334557
0.0323701
0.0314243
0.0307381
0.0303881
0.0304076
0.0307925
0.0315115
0.0325159
0.0337486
0.0351499
0.0366601
0.0382209
0.0397766
0.0412758
0.0426734
0.0439336
0.0450312
0.045954
0.0467024
0.0472808
0.0477276
0.04805
0.04805
0.04805
0.04805
0.04805
0.04805
0.04805
0.04805
0.04805
0.04805
0.04805
0.04805
0.04805
0.04805
0.04805
0.04805
0.04805
0.0451741
0.0350675
0.0189387
0.00553244
0.000670183
1.9608e-05
0.0321105
0.0316894
0.0309904
0.0301972
0.0294836
0.0289906
0.0288121
0.0289929
0.0295349
0.0304076
0.0315597
0.0329305
0.034457
0.0360775
0.0377334
0.03937
0.0409376
0.0423936
0.0437043
0.0448465
0.045809
0.0465947
0.0472095
0.0476587
0.04805
0.04805
0.04805
0.04805
0.04805
0.04805
0.04805
0.04805
0.04805
0.04805
0.04805
0.04805
0.04805
0.04805
0.04805
0.04805
0.04805
0.04805
0.0451218
0.0349962
0.0188734
0.00550688
0.000666789
1.95084e-05
0.0277913
0.027514
0.0270953
0.0267086
0.0265087
0.026606
0.0270558
0.0278628
0.0289929
0.0303881
0.0319804
0.0337015
0.035487
0.0372789
0.039025
0.0406799
0.0422052
0.0435717
0.0447602
0.0457619
0.0465807
0.0472238
0.0477025
0.04805
0.04805
0.04805
0.04805
0.04805
0.04805
0.04805
0.04805
0.04805
0.04805
0.04805
0.04805
0.04805
0.04805
0.04805
0.04805
0.04805
0.04805
0.04805
0.0450409
0.0348848
0.0187721
0.00546724
0.000661508
1.93534e-05
0.0230696
0.0229978
0.0229655
0.0231151
0.0235632
0.0243738
0.0255522
0.0270558
0.0288121
0.0307381
0.0327535
0.0347879
0.0367819
0.0386868
0.0404629
0.0420797
0.043515
0.0447566
0.0458027
0.0466548
0.0473162
0.0478472
0.04805
0.04805
0.04805
0.04805
0.04805
0.04805
0.04805
0.04805
0.04805
0.04805
0.04805
0.04805
0.04805
0.04805
0.04805
0.04805
0.04805
0.04805
0.04805
0.04805
0.0449245
0.0347252
0.018628
0.00541108
0.000654017
1.91333e-05
0.0181398
0.0183313
0.0187823
0.0195816
0.0207876
0.022403
0.0243738
0.026606
0.0289906
0.0314242
0.0338203
0.0361124
0.0382521
0.0402061
0.0419531
0.0434819
0.0447906
0.0458889
0.0467855
0.0474741
0.04805
0.04805
0.04805
0.04805
0.04805
0.04805
0.04805
0.04805
0.04805
0.04805
0.04805
0.04805
0.04805
0.04805
0.04805
0.04805
0.04805
0.04805
0.04805
0.04805
0.04805
0.04805
0.0447632
0.034505
0.0184311
0.00533461
0.000643803
1.88331e-05
0.0132589
0.0137597
0.0147671
0.0162949
0.0183252
0.0207876
0.0235632
0.0265086
0.0294835
0.0323701
0.0350818
0.0375621
0.0397792
0.04172
0.0433852
0.0447865
0.0459426
0.0468721
0.0476515
0.04805
0.04805
0.04805
0.04805
0.04805
0.04805
0.04805
0.04805
0.04805
0.04805
0.04805
0.04805
0.04805
0.04805
0.04805
0.04805
0.04805
0.04805
0.04805
0.04805
0.04805
0.04805
0.04805
0.0445465
0.0342078
0.0181669
0.00523235
0.000630102
1.84303e-05
0.008726
0.00955939
0.0111556
0.0134364
0.0162949
0.0195815
0.0231151
0.0267085
0.0301971
0.0334556
0.0364031
0.0389977
0.0412276
0.0431021
0.044647
0.0458909
0.0468663
0.0477327
0.04805
0.04805
0.04805
0.04805
0.04805
0.04805
0.04805
0.04805
0.04805
0.04805
0.04805
0.04805
0.04805
0.04805
0.04805
0.04805
0.04805
0.04805
0.04805
0.04805
0.04805
0.04805
0.04805
0.04805
0.0442679
0.0338187
0.0178223
0.00509936
0.000612214
1.79047e-05
0.00486037
0.00601496
0.00817195
0.0111556
0.0147671
0.0187822
0.0229654
0.0270952
0.0309903
0.0345241
0.037625
0.0402681
0.0424608
0.044237
0.0456373
0.0466994
0.0476189
0.04805
0.04805
0.04805
0.04805
0.04805
0.04805
0.04805
0.04805
0.04805
0.04805
0.04805
0.04805
0.04805
0.04805
0.04805
0.04805
0.04805
0.04805
0.04805
0.04805
0.04805
0.04805
0.04805
0.04805
0.04805
0.0439399
0.0333478
0.0174061
0.00493934
0.000590633
1.72708e-05
0.00198493
0.00340287
0.00601493
0.00955933
0.0137596
0.0183312
0.0229977
0.0275139
0.0316893
0.0353993
0.0385829
0.0412294
0.0433641
0.0450389
0.0463002
0.047252
0.04805
0.04805
0.04805
0.04805
0.04805
0.04805
0.04805
0.04805
0.04805
0.04805
0.04805
0.04805
0.04805
0.04805
0.04805
0.04805
0.04805
0.04805
0.04805
0.04805
0.04805
0.04805
0.04805
0.04805
0.04805
0.04805
0.0436156
0.0328689
0.016984
0.00477812
0.000568896
1.6633e-05
0.000413444
0.00198491
0.00486033
0.00872592
0.0132588
0.0181396
0.0230695
0.0277912
0.0321103
0.035905
0.0391211
0.0417564
0.0438477
0.0454507
0.0466161
0.0475687
0.04805
0.04805
0.04805
0.04805
0.04805
0.04805
0.04805
0.04805
0.04805
0.04805
0.04805
0.04805
0.04805
0.04805
0.04805
0.04805
0.04805
0.04805
0.04805
0.04805
0.04805
0.04805
0.04805
0.04805
0.04805
0.04805
0.0433982
0.0325411
0.0166963
0.00466893
0.000554205
1.6202e-05
)
;

boundaryField
{
    inlet
    {
        type            cyclic;
    }
    outlet
    {
        type            cyclic;
    }
    walls
    {
        type            calculated;
        value           nonuniform List<scalar> 
96
(
5.32e-08
2.3594e-07
5.81194e-07
1.08604e-06
1.75464e-06
2.59155e-06
3.59665e-06
4.75848e-06
6.04738e-06
7.41474e-06
8.80229e-06
1.01541e-05
1.14256e-05
1.25879e-05
1.36262e-05
1.4537e-05
1.53244e-05
1.59981e-05
1.65702e-05
1.70497e-05
1.74469e-05
1.77745e-05
1.80468e-05
1.8278e-05
1.84805e-05
1.86642e-05
1.88357e-05
1.89982e-05
1.91522e-05
1.92968e-05
1.943e-05
1.95503e-05
1.96562e-05
1.97463e-05
1.98181e-05
1.9868e-05
1.98907e-05
1.98798e-05
1.98279e-05
1.97277e-05
1.95717e-05
1.93502e-05
1.90479e-05
1.86422e-05
1.81125e-05
1.74736e-05
1.68305e-05
1.63959e-05
1.63958e-05
1.68304e-05
1.74736e-05
1.81125e-05
1.86422e-05
1.90479e-05
1.93502e-05
1.95718e-05
1.97278e-05
1.9828e-05
1.98798e-05
1.98908e-05
1.9868e-05
1.98182e-05
1.97464e-05
1.96563e-05
1.95503e-05
1.943e-05
1.92968e-05
1.91523e-05
1.89982e-05
1.88357e-05
1.86642e-05
1.84805e-05
1.8278e-05
1.80468e-05
1.77745e-05
1.74469e-05
1.70497e-05
1.65702e-05
1.59981e-05
1.53245e-05
1.4537e-05
1.36262e-05
1.25879e-05
1.14256e-05
1.01541e-05
8.8023e-06
7.41474e-06
6.04739e-06
4.75849e-06
3.59665e-06
2.59155e-06
1.75464e-06
1.08604e-06
5.81195e-07
2.3594e-07
5.32e-08
)
;
    }
    symPlanes
    {
        type            symmetry;
    }
}


// ************************************************************************* //
