/*--------------------------------*- C++ -*----------------------------------*\
| =========                 |                                                 |
| \\      /  F ield         | OpenFOAM: The Open Source CFD Toolbox           |
|  \\    /   O peration     | Version:  2506                                  |
|   \\  /    A nd           | Website:  www.openfoam.com                      |
|    \\/     M anipulation  |                                                 |
\*---------------------------------------------------------------------------*/
FoamFile
{
    version     2.0;
    format      ascii;
    arch        "LSB;label=32;scalar=64";
    class       volScalarField;
    location    "2137";
    object      I2;
}
// * * * * * * * * * * * * * * * * * * * * * * * * * * * * * * * * * * * * * //

dimensions      [0 0 0 0 0 0 0];

internalField   nonuniform List<scalar> 
2304
(
-1.62019e-05
-1.66329e-05
-1.72708e-05
-1.79047e-05
-1.84304e-05
-1.88331e-05
-1.91333e-05
-1.93534e-05
-1.95085e-05
-1.9608e-05
-1.96596e-05
-1.96705e-05
-1.96479e-05
-1.95984e-05
-1.95271e-05
-1.94375e-05
-1.93322e-05
-1.92125e-05
-1.90798e-05
-1.89358e-05
-1.87823e-05
-1.86203e-05
-1.84493e-05
-1.82663e-05
-1.80646e-05
-1.78345e-05
-1.75637e-05
-1.72383e-05
-1.68439e-05
-1.6368e-05
-1.58005e-05
-1.51324e-05
-1.43518e-05
-1.34493e-05
-1.24209e-05
-1.12699e-05
-1.00106e-05
-8.67153e-06
-7.29657e-06
-5.94126e-06
-4.66393e-06
-3.5137e-06
-2.52069e-06
-1.69651e-06
-1.04118e-06
-5.50024e-07
-2.18793e-07
-4.92545e-08
-0.000554198
-0.000568892
-0.00059063
-0.000612214
-0.000630102
-0.000643804
-0.000654017
-0.000661508
-0.000666789
-0.000670184
-0.000671946
-0.000672325
-0.000671567
-0.000669892
-0.000667472
-0.000664433
-0.000660854
-0.000656783
-0.000652266
-0.000647356
-0.000642114
-0.000636582
-0.000630745
-0.000624464
-0.000617537
-0.000609655
-0.000600407
-0.00058932
-0.000575913
-0.000559752
-0.000540492
-0.000517846
-0.000491408
-0.000460866
-0.000426079
-0.000387143
-0.000344497
-0.000299045
-0.000252211
-0.000205857
-0.000162017
-0.000122477
-8.84521e-05
-6.03994e-05
-3.81898e-05
-2.09117e-05
-6.49899e-06
-2.18793e-07
-0.00466885
-0.00477806
-0.0049393
-0.00509934
-0.00523234
-0.00533461
-0.00541108
-0.00546725
-0.00550688
-0.00553245
-0.0055459
-0.00554912
-0.00554392
-0.00553189
-0.00551427
-0.00549191
-0.00546533
-0.00543478
-0.00540053
-0.00536286
-0.00532215
-0.00527863
-0.00523219
-0.00518323
-0.00512955
-0.00506855
-0.00499714
-0.00491177
-0.00480871
-0.0046844
-0.00453594
-0.00436102
-0.00415623
-0.00391885
-0.00364728
-0.00334131
-0.003003
-0.00263767
-0.00225479
-0.00186809
-0.00149452
-0.00115185
-0.000850978
-0.000593227
-0.00036551
-0.000150954
-2.09117e-05
-5.50024e-07
-0.0166953
-0.0169832
-0.0174053
-0.0178217
-0.0181664
-0.0184307
-0.0186276
-0.0187717
-0.018873
-0.0189383
-0.018973
-0.0189818
-0.0189695
-0.0189401
-0.0188965
-0.018841
-0.0187747
-0.0186981
-0.0186116
-0.0185155
-0.0184102
-0.0182959
-0.0181721
-0.0180415
-0.0178967
-0.0177308
-0.0175358
-0.0173022
-0.0170193
-0.0166764
-0.0162633
-0.0157714
-0.0151896
-0.0145081
-0.0137184
-0.0128139
-0.0117913
-0.010653
-0.00941022
-0.00808658
-0.00672019
-0.00536201
-0.00403587
-0.00270295
-0.0013584
-0.00036551
-3.81898e-05
-1.04117e-06
-0.0325372
-0.0328656
-0.0333452
-0.0338166
-0.0342061
-0.0345037
-0.034724
-0.0348837
-0.0349951
-0.0350665
-0.0351045
-0.0351147
-0.0351024
-0.0350721
-0.0350273
-0.0349705
-0.0349032
-0.0348259
-0.0347386
-0.0346409
-0.034532
-0.0344104
-0.0342755
-0.0341296
-0.0339627
-0.0337666
-0.0335319
-0.0332472
-0.0328996
-0.0324747
-0.0319567
-0.0313261
-0.0305726
-0.0296844
-0.0286487
-0.027452
-0.0260775
-0.0245013
-0.0226858
-0.0205705
-0.0180541
-0.0149981
-0.0112223
-0.00675759
-0.00270295
-0.000593226
-6.03994e-05
-1.69651e-06
-0.0433959
-0.0436138
-0.0439387
-0.044267
-0.0445459
-0.0447627
-0.0449241
-0.0450405
-0.0451214
-0.0451737
-0.0452031
-0.045214
-0.0452107
-0.0451968
-0.0451756
-0.0451494
-0.0451199
-0.0450875
-0.0450513
-0.045009
-0.0449573
-0.0448924
-0.0448133
-0.0447186
-0.0445996
-0.0444499
-0.0442629
-0.0440309
-0.0437455
-0.043397
-0.0429774
-0.0424784
-0.0418933
-0.0412227
-0.0404706
-0.0396406
-0.0387263
-0.0376912
-0.0364333
-0.0347207
-0.0320441
-0.0274942
-0.0202575
-0.0112223
-0.00403587
-0.000850977
-8.84521e-05
-2.52069e-06
-0.0480474
-0.0480478
-0.0480483
-0.0480487
-0.0480489
-0.048049
-0.0480491
-0.0480492
-0.0480492
-0.0480493
-0.0480493
-0.0480493
-0.0480493
-0.0480493
-0.0480492
-0.0480491
-0.048049
-0.0480488
-0.0480487
-0.0480485
-0.0480482
-0.0480479
-0.0480476
-0.0480471
-0.0480464
-0.0480455
-0.0480442
-0.0480425
-0.04804
-0.0480367
-0.0480328
-0.0477115
-0.0473352
-0.0469719
-0.046653
-0.0464055
-0.0462283
-0.046054
-0.0456921
-0.0447565
-0.0424922
-0.0372592
-0.0274942
-0.0149981
-0.00536201
-0.00115185
-0.000122477
-3.5137e-06
-0.0480428
-0.0480438
-0.0480451
-0.0480462
-0.048047
-0.0480475
-0.048048
-0.0480483
-0.0480486
-0.0480488
-0.0480491
-0.0480492
-0.0480494
-0.0480495
-0.0480497
-0.0480498
-0.0480499
-0.04805
-0.0480502
-0.0480503
-0.0480506
-0.0480508
-0.0480511
-0.0480515
-0.0480518
-0.0480519
-0.0480517
-0.0480508
-0.0480489
-0.0480456
-0.04804
-0.0480335
-0.0480277
-0.0480219
-0.0480156
-0.0480081
-0.0479985
-0.0479869
-0.0479746
-0.0479634
-0.0479147
-0.0424922
-0.0320441
-0.0180541
-0.00672018
-0.00149452
-0.000162017
-4.66393e-06
-0.0480369
-0.0480386
-0.0480409
-0.0480429
-0.0480444
-0.0480455
-0.0480464
-0.0480471
-0.0480476
-0.0480481
-0.0480485
-0.0480488
-0.0480492
-0.0480494
-0.0480497
-0.04805
-0.0480503
-0.0480507
-0.0480511
-0.0480517
-0.0480523
-0.0480532
-0.0480543
-0.0480556
-0.048057
-0.0480583
-0.048059
-0.0480588
-0.0480568
-0.0480526
-0.0480457
-0.0480361
-0.048026
-0.048016
-0.048006
-0.0479958
-0.0479852
-0.0479753
-0.0479671
-0.0479624
-0.0479634
-0.0447565
-0.0347207
-0.0205705
-0.00808657
-0.00186809
-0.000205857
-5.94126e-06
-0.0480358
-0.0480377
-0.0480403
-0.0480426
-0.0480443
-0.0480456
-0.0480466
-0.0480475
-0.0480482
-0.0480488
-0.0480492
-0.0480497
-0.04805
-0.0480504
-0.0480508
-0.0480511
-0.0480516
-0.0480521
-0.0480528
-0.0480536
-0.0480547
-0.0480563
-0.0480582
-0.0480605
-0.0480631
-0.0480653
-0.0480664
-0.0480655
-0.0480613
-0.0480528
-0.0480397
-0.0480241
-0.0480089
-0.0479955
-0.0479842
-0.0479749
-0.0479678
-0.0479637
-0.0479631
-0.0479671
-0.0479746
-0.045692
-0.0364333
-0.0226858
-0.00941021
-0.00225479
-0.000252211
-7.29656e-06
-0.0480323
-0.0480347
-0.0480379
-0.0480408
-0.048043
-0.0480447
-0.0480461
-0.0480473
-0.0480484
-0.0480492
-0.0480499
-0.0480505
-0.0480511
-0.0480516
-0.0480522
-0.0480529
-0.0480536
-0.0480545
-0.0480556
-0.0480572
-0.0480592
-0.048062
-0.0480656
-0.0480699
-0.0480746
-0.0480787
-0.0480809
-0.0480797
-0.0480728
-0.0480587
-0.0480382
-0.0480148
-0.0479936
-0.0479769
-0.0479653
-0.0479584
-0.0479557
-0.0479572
-0.0479637
-0.0479753
-0.0479869
-0.046054
-0.0376912
-0.0245013
-0.010653
-0.00263767
-0.000299044
-8.67152e-06
-0.0480277
-0.0480306
-0.0480347
-0.0480385
-0.0480415
-0.0480438
-0.0480458
-0.0480475
-0.048049
-0.0480502
-0.0480513
-0.0480522
-0.048053
-0.0480539
-0.0480548
-0.0480558
-0.048057
-0.0480585
-0.0480604
-0.048063
-0.0480665
-0.0480712
-0.0480772
-0.0480844
-0.0480919
-0.0480985
-0.0481019
-0.0480999
-0.0480894
-0.0480681
-0.0480382
-0.0480062
-0.0479794
-0.047961
-0.0479508
-0.0479472
-0.0479492
-0.0479557
-0.0479678
-0.0479852
-0.0479985
-0.0462283
-0.0387263
-0.0260775
-0.0117913
-0.00300299
-0.000344497
-1.00106e-05
-0.0480229
-0.0480265
-0.0480316
-0.0480364
-0.0480403
-0.0480435
-0.0480462
-0.0480485
-0.0480506
-0.0480524
-0.0480538
-0.0480551
-0.0480563
-0.0480575
-0.0480589
-0.0480604
-0.0480623
-0.0480645
-0.0480676
-0.0480717
-0.0480772
-0.0480845
-0.0480934
-0.0481039
-0.0481144
-0.0481234
-0.0481276
-0.048124
-0.0481081
-0.0480783
-0.0480384
-0.0479978
-0.0479656
-0.0479468
-0.0479396
-0.0479406
-0.0479472
-0.0479584
-0.0479749
-0.0479958
-0.0480081
-0.0464055
-0.0396406
-0.027452
-0.0128139
-0.00334131
-0.000387143
-1.12698e-05
-0.0480182
-0.0480225
-0.0480288
-0.0480349
-0.04804
-0.0480441
-0.0480476
-0.0480508
-0.0480536
-0.048056
-0.048058
-0.0480597
-0.0480614
-0.0480631
-0.048065
-0.0480673
-0.04807
-0.0480734
-0.0480779
-0.048084
-0.048092
-0.0481022
-0.0481143
-0.048128
-0.048141
-0.0481505
-0.0481513
-0.0481449
-0.0481247
-0.0480845
-0.0480337
-0.0479867
-0.0479535
-0.0479366
-0.0479337
-0.0479396
-0.0479508
-0.0479653
-0.0479842
-0.048006
-0.0480156
-0.046653
-0.0404706
-0.0286487
-0.0137184
-0.00364727
-0.000426079
-1.24209e-05
-0.0480137
-0.0480189
-0.0480266
-0.0480342
-0.0480406
-0.0480459
-0.0480505
-0.0480547
-0.0480584
-0.0480615
-0.0480641
-0.0480664
-0.0480687
-0.0480711
-0.0480737
-0.048077
-0.0480809
-0.0480858
-0.0480923
-0.0481008
-0.0481117
-0.0481248
-0.0481394
-0.0481549
-0.0481659
-0.0481755
-0.0481729
-0.0481516
-0.0478924
-0.0477571
-0.047747
-0.0479276
-0.0479422
-0.047933
-0.0479366
-0.0479468
-0.047961
-0.0479769
-0.0479955
-0.048016
-0.0480219
-0.0469719
-0.0412227
-0.0296844
-0.0145081
-0.00391885
-0.000460866
-1.34493e-05
-0.0480098
-0.048016
-0.0480254
-0.0480348
-0.0480427
-0.0480494
-0.0480553
-0.0480606
-0.0480654
-0.0480694
-0.0480727
-0.0480757
-0.0480788
-0.048082
-0.0480857
-0.0480902
-0.0480957
-0.0481026
-0.0481115
-0.0481226
-0.0481363
-0.0481517
-0.048165
-0.0481812
-0.048191
-0.0481266
-0.0477148
-0.0473822
-0.0471682
-0.047105
-0.0471729
-0.047348
-0.0477087
-0.0479422
-0.0479535
-0.0479656
-0.0479794
-0.0479936
-0.0480089
-0.048026
-0.0480277
-0.0473352
-0.0418933
-0.0305726
-0.0151896
-0.00415622
-0.000491408
-1.43518e-05
-0.0480068
-0.0480142
-0.0480255
-0.0480369
-0.0480468
-0.0480551
-0.0480625
-0.0480691
-0.0480751
-0.0480801
-0.0480843
-0.0480882
-0.0480922
-0.0480965
-0.0481015
-0.0481078
-0.0481154
-0.0481245
-0.0481362
-0.0481498
-0.0481641
-0.0481802
-0.0481946
-0.0481977
-0.0477492
-0.0472767
-0.046902
-0.0466562
-0.0465219
-0.0465348
-0.0466944
-0.0469847
-0.047348
-0.0479276
-0.0479867
-0.0479978
-0.0480062
-0.0480148
-0.0480241
-0.0480361
-0.0480335
-0.0477115
-0.0424784
-0.0313261
-0.0157714
-0.00436101
-0.000517846
-1.51324e-05
-0.048005
-0.0480138
-0.0480273
-0.0480411
-0.0480532
-0.0480635
-0.0480726
-0.0480808
-0.0480881
-0.0480943
-0.0480995
-0.0481043
-0.0481096
-0.0481154
-0.0481219
-0.0481306
-0.0481408
-0.0481524
-0.0481655
-0.0481793
-0.0481963
-0.0482064
-0.0479097
-0.0473547
-0.0468563
-0.0464525
-0.0461324
-0.0459475
-0.0459084
-0.0460264
-0.0462956
-0.0466944
-0.0471729
-0.047747
-0.0480337
-0.0480384
-0.0480382
-0.0480382
-0.0480397
-0.0480457
-0.04804
-0.0480328
-0.0429774
-0.0319567
-0.0162633
-0.00453594
-0.000540491
-1.58005e-05
-0.0480047
-0.0480151
-0.0480311
-0.0480479
-0.0480627
-0.0480754
-0.0480865
-0.0480965
-0.0481053
-0.0481128
-0.048119
-0.048125
-0.0481319
-0.0481396
-0.0481481
-0.0481596
-0.0481707
-0.0481831
-0.0482003
-0.0482119
-0.0480475
-0.0475087
-0.0469626
-0.0464563
-0.0459943
-0.0456315
-0.0453948
-0.045311
-0.0453908
-0.0456342
-0.0460264
-0.0465348
-0.047105
-0.0477571
-0.0480845
-0.0480783
-0.0480681
-0.0480587
-0.0480528
-0.0480526
-0.0480456
-0.0480367
-0.043397
-0.0324747
-0.0166764
-0.0046844
-0.000559752
-1.6368e-05
-0.0480061
-0.0480183
-0.0480373
-0.0480575
-0.0480757
-0.0480914
-0.0481051
-0.0481173
-0.0481279
-0.0481367
-0.0481442
-0.0481514
-0.0481602
-0.048169
-0.0481775
-0.048192
-0.0482082
-0.0482163
-0.0480636
-0.0476057
-0.0470869
-0.0465588
-0.0460354
-0.0455456
-0.0451432
-0.0448685
-0.0447465
-0.0447929
-0.045011
-0.0453908
-0.0459084
-0.0465219
-0.0471682
-0.0478924
-0.0481247
-0.0481081
-0.0480894
-0.0480728
-0.0480613
-0.0480568
-0.0480489
-0.04804
-0.0437454
-0.0328996
-0.0170193
-0.0048087
-0.000575913
-1.68439e-05
-0.0480092
-0.0480235
-0.0480461
-0.0480705
-0.0480929
-0.0481125
-0.0481297
-0.0481447
-0.0481575
-0.0481678
-0.0481759
-0.0481831
-0.0481938
-0.048206
-0.0482143
-0.0482214
-0.0479417
-0.0475818
-0.0471427
-0.0466638
-0.0461457
-0.0455978
-0.0450899
-0.0446639
-0.0443612
-0.0442111
-0.0442307
-0.0444264
-0.0447929
-0.045311
-0.0459475
-0.0466562
-0.0473822
-0.0481516
-0.0481449
-0.048124
-0.0480999
-0.0480797
-0.0480655
-0.0480588
-0.0480508
-0.0480425
-0.0440309
-0.0332472
-0.0173021
-0.00491177
-0.00058932
-1.72382e-05
-0.0480142
-0.0480309
-0.0480576
-0.0480872
-0.0481151
-0.0481399
-0.0481617
-0.0481805
-0.0481958
-0.0482074
-0.0482168
-0.0482235
-0.0482083
-0.0480077
-0.0477716
-0.0474665
-0.0471136
-0.0467131
-0.0462335
-0.0456904
-0.0451397
-0.0446196
-0.044181
-0.0438624
-0.043694
-0.0436954
-0.0438753
-0.0442307
-0.0447465
-0.0453948
-0.0461324
-0.046902
-0.0477148
-0.0481729
-0.0481513
-0.0481276
-0.0481019
-0.0480809
-0.0480664
-0.048059
-0.0480517
-0.0480442
-0.0442629
-0.0335319
-0.0175358
-0.00499714
-0.000600407
-1.75637e-05
-0.0480208
-0.0480401
-0.0480719
-0.0481079
-0.0481429
-0.0481749
-0.0482032
-0.0482268
-0.0482456
-0.0482565
-0.0481213
-0.0478913
-0.047643
-0.0473773
-0.0470778
-0.0467155
-0.0462618
-0.0457545
-0.0452057
-0.0446473
-0.0441256
-0.0436825
-0.0433577
-0.0431814
-0.0431741
-0.0433457
-0.0436954
-0.0442111
-0.0448685
-0.0456315
-0.0464525
-0.0472767
-0.0481266
-0.0481755
-0.0481505
-0.0481234
-0.0480985
-0.0480787
-0.0480653
-0.0480583
-0.0480519
-0.0480455
-0.0444499
-0.0337666
-0.0177308
-0.00506854
-0.000609655
-1.78345e-05
-0.0480286
-0.0480511
-0.0480887
-0.0481328
-0.0481772
-0.0482189
-0.0482559
-0.0482864
-0.048303
-0.0479822
-0.0476848
-0.0473932
-0.0470743
-0.0466942
-0.0462663
-0.0457823
-0.045244
-0.0446802
-0.0441184
-0.0435966
-0.043156
-0.0428331
-0.042658
-0.0426512
-0.0428231
-0.0431741
-0.043694
-0.0443612
-0.0451432
-0.0459943
-0.0468563
-0.0477492
-0.048191
-0.0481659
-0.048141
-0.0481144
-0.0480919
-0.0480746
-0.0480631
-0.048057
-0.0480518
-0.0480464
-0.0445996
-0.0339626
-0.0178966
-0.00512955
-0.000617536
-1.80645e-05
-0.048037
-0.0480632
-0.0481079
-0.0481621
-0.0482186
-0.0482733
-0.0483224
-0.0483531
-0.0479655
-0.0475795
-0.0471875
-0.0467669
-0.0463131
-0.0458137
-0.045276
-0.044705
-0.0441185
-0.0435475
-0.0430257
-0.0425898
-0.0422746
-0.0421083
-0.0421104
-0.0422911
-0.0426512
-0.0431814
-0.0438624
-0.0446639
-0.0455456
-0.0464563
-0.0473547
-0.0481977
-0.0481812
-0.0481549
-0.048128
-0.0481039
-0.0480844
-0.0480699
-0.0480605
-0.0480556
-0.0480515
-0.0480471
-0.0447186
-0.0341296
-0.0180415
-0.00518323
-0.000624463
-1.82663e-05
-0.0480453
-0.0480758
-0.0481291
-0.0481957
-0.0482675
-0.0483393
-0.0483959
-0.0480669
-0.0475655
-0.047044
-0.0465113
-0.0459554
-0.045373
-0.0447647
-0.0441427
-0.0435239
-0.0429343
-0.0424068
-0.0419752
-0.0416705
-0.0415182
-0.0415362
-0.0417334
-0.0421104
-0.042658
-0.0433577
-0.044181
-0.0450899
-0.0460354
-0.0469626
-0.0479097
-0.0481946
-0.0481651
-0.0481394
-0.0481143
-0.0480934
-0.0480772
-0.0480656
-0.0480582
-0.0480543
-0.0480511
-0.0480476
-0.0448133
-0.0342755
-0.0181721
-0.00523219
-0.000630744
-1.84493e-05
-0.048052
-0.0480877
-0.0481514
-0.0482334
-0.0483238
-0.0484121
-0.0482602
-0.047639
-0.0469934
-0.0463291
-0.0456526
-0.0449628
-0.0442652
-0.0435714
-0.0429017
-0.0422813
-0.0417397
-0.0413074
-0.0410122
-0.0408763
-0.0409149
-0.0411352
-0.0415362
-0.0421083
-0.0428331
-0.0436825
-0.0446196
-0.0455978
-0.0465588
-0.0475087
-0.0482064
-0.0481802
-0.0481517
-0.0481248
-0.0481022
-0.0480845
-0.0480712
-0.048062
-0.0480563
-0.0480532
-0.0480508
-0.0480479
-0.0448924
-0.0344104
-0.0182959
-0.00527863
-0.000636581
-1.86203e-05
-0.0480555
-0.0480974
-0.0481737
-0.0482745
-0.0483874
-0.0484765
-0.0477749
-0.0470319
-0.0462377
-0.045425
-0.0446067
-0.0437954
-0.0430084
-0.0422673
-0.0415981
-0.0410287
-0.0405864
-0.0402955
-0.0401749
-0.0402362
-0.0404839
-0.0409149
-0.0415182
-0.0422746
-0.043156
-0.0441256
-0.0451398
-0.0461457
-0.0470869
-0.0480475
-0.0481963
-0.0481641
-0.0481363
-0.0481117
-0.048092
-0.0480772
-0.0480665
-0.0480592
-0.0480547
-0.0480523
-0.0480506
-0.0480482
-0.0449572
-0.034532
-0.0184102
-0.00532215
-0.000642114
-1.87823e-05
-0.0480525
-0.0481022
-0.048194
-0.0483165
-0.048441
-0.0479372
-0.0471338
-0.0462309
-0.0452836
-0.0443237
-0.0433786
-0.0424746
-0.0416387
-0.040899
-0.0402833
-0.0398171
-0.0395213
-0.0394108
-0.0394937
-0.0397708
-0.0402362
-0.0408763
-0.0416705
-0.0425898
-0.0435966
-0.0446473
-0.0456904
-0.0466638
-0.0476057
-0.0482119
-0.0481793
-0.0481498
-0.0481226
-0.0481008
-0.048084
-0.0480717
-0.048063
-0.0480572
-0.0480536
-0.0480517
-0.0480503
-0.0480485
-0.045009
-0.0346409
-0.0185155
-0.00536286
-0.000647356
-1.89358e-05
-0.0480385
-0.0480977
-0.0482065
-0.0483435
-0.048059
-0.0472493
-0.0462779
-0.0452182
-0.0441206
-0.0430306
-0.0419897
-0.0410354
-0.0402013
-0.0395178
-0.0390095
-0.0386952
-0.038586
-0.0386859
-0.0389918
-0.0394937
-0.0401749
-0.0410122
-0.0419752
-0.0430258
-0.0441184
-0.0452057
-0.0462335
-0.0471427
-0.0480636
-0.0482003
-0.0481655
-0.0481362
-0.0481115
-0.0480923
-0.0480779
-0.0480676
-0.0480604
-0.0480556
-0.0480528
-0.0480511
-0.0480502
-0.0480487
-0.0450513
-0.0347386
-0.0186116
-0.00540052
-0.000652265
-1.90798e-05
-0.0480032
-0.0480719
-0.0481945
-0.0480108
-0.0472494
-0.046315
-0.0451924
-0.0439827
-0.0427531
-0.0415658
-0.0404743
-0.0395232
-0.0387486
-0.0381776
-0.0378277
-0.0377075
-0.0378168
-0.0381477
-0.0386859
-0.0394108
-0.0402955
-0.0413074
-0.0424068
-0.0435475
-0.0446802
-0.0457545
-0.0467131
-0.0475818
-0.0482163
-0.0481831
-0.0481524
-0.0481245
-0.0481026
-0.0480858
-0.0480734
-0.0480645
-0.0480585
-0.0480545
-0.0480521
-0.0480507
-0.04805
-0.0480488
-0.0450875
-0.0348259
-0.0186981
-0.00543478
-0.000656782
-1.92124e-05
-0.0479317
-0.0480069
-0.0477034
-0.0470777
-0.046245
-0.0451409
-0.0438696
-0.0425274
-0.0412005
-0.0399638
-0.0388786
-0.0379921
-0.037337
-0.0369329
-0.0367866
-0.0368946
-0.0372445
-0.0378168
-0.038586
-0.0395213
-0.0405864
-0.0417397
-0.0429343
-0.0441185
-0.045244
-0.0462619
-0.0471136
-0.0479417
-0.0482082
-0.0481707
-0.0481408
-0.0481154
-0.0480957
-0.0480809
-0.04807
-0.0480623
-0.048057
-0.0480536
-0.0480516
-0.0480503
-0.0480499
-0.048049
-0.0451199
-0.0349031
-0.0187747
-0.00546532
-0.000660853
-1.93321e-05
-0.0473468
-0.047111
-0.0466806
-0.0459923
-0.0449745
-0.0437133
-0.0423091
-0.0408708
-0.0394976
-0.0382725
-0.0372593
-0.0365019
-0.0360251
-0.0358368
-0.0359314
-0.0362922
-0.0368946
-0.0377075
-0.0386952
-0.0398171
-0.0410287
-0.0422814
-0.043524
-0.044705
-0.0457823
-0.0467155
-0.0474665
-0.0482214
-0.048192
-0.0481596
-0.0481306
-0.0481078
-0.0480902
-0.048077
-0.0480673
-0.0480604
-0.0480558
-0.0480529
-0.0480511
-0.04805
-0.0480498
-0.0480491
-0.0451494
-0.0349704
-0.018841
-0.0054919
-0.000664431
-1.94375e-05
-0.0462729
-0.0460337
-0.0454838
-0.0446044
-0.0434232
-0.0420264
-0.0405276
-0.0390475
-0.0376934
-0.0365509
-0.0356801
-0.0351161
-0.0348716
-0.0349407
-0.0353039
-0.0359314
-0.0367866
-0.0378278
-0.0390095
-0.0402833
-0.0415981
-0.0429017
-0.0441427
-0.045276
-0.0462663
-0.0470778
-0.0477716
-0.0482143
-0.0481775
-0.0481481
-0.0481219
-0.0481015
-0.0480857
-0.0480737
-0.048065
-0.0480589
-0.0480548
-0.0480522
-0.0480508
-0.0480497
-0.0480497
-0.0480492
-0.0451756
-0.0350272
-0.0188965
-0.00551426
-0.000667471
-1.9527e-05
-0.0449713
-0.0446281
-0.0439311
-0.042897
-0.0415827
-0.0400929
-0.0385581
-0.037107
-0.0358494
-0.0348667
-0.0342094
-0.0338993
-0.0339338
-0.0342922
-0.0349407
-0.0358368
-0.0369329
-0.0381776
-0.0395178
-0.040899
-0.0422673
-0.0435714
-0.0447648
-0.0458137
-0.0466942
-0.0473773
-0.0480077
-0.048206
-0.048169
-0.0481396
-0.0481154
-0.0480965
-0.048082
-0.0480711
-0.0480631
-0.0480575
-0.0480539
-0.0480516
-0.0480504
-0.0480494
-0.0480495
-0.0480493
-0.0451968
-0.035072
-0.01894
-0.00553188
-0.000669891
-1.95984e-05
-0.0432394
-0.0428183
-0.0420063
-0.0408559
-0.0394577
-0.0379411
-0.0364482
-0.0351114
-0.034036
-0.0332928
-0.0329175
-0.0329149
-0.0332658
-0.0339338
-0.0348716
-0.0360251
-0.0373371
-0.0387486
-0.0402014
-0.0416387
-0.0430084
-0.0442652
-0.0453731
-0.0463131
-0.0470744
-0.047643
-0.0482083
-0.0481938
-0.0481602
-0.0481319
-0.0481096
-0.0480922
-0.0480788
-0.0480687
-0.0480614
-0.0480563
-0.048053
-0.0480511
-0.04805
-0.0480492
-0.0480494
-0.0480493
-0.0452107
-0.0351023
-0.0189695
-0.00554391
-0.000671566
-1.96479e-05
-0.0410502
-0.0405747
-0.0396864
-0.0384765
-0.0370694
-0.0356133
-0.0342578
-0.0331318
-0.0323293
-0.0319044
-0.0318736
-0.0322226
-0.0329149
-0.0338993
-0.0351162
-0.036502
-0.0379921
-0.0395232
-0.0410354
-0.0424746
-0.0437954
-0.0449628
-0.0459554
-0.0467669
-0.0473933
-0.0478913
-0.0482235
-0.0481831
-0.0481514
-0.048125
-0.0481043
-0.0480882
-0.0480757
-0.0480664
-0.0480597
-0.0480551
-0.0480522
-0.0480505
-0.0480497
-0.0480488
-0.0480492
-0.0480493
-0.045214
-0.0351146
-0.0189818
-0.00554911
-0.000672324
-1.96704e-05
-0.0383654
-0.0378663
-0.0369601
-0.035772
-0.0344529
-0.0331645
-0.0320561
-0.0312454
-0.0308078
-0.0307751
-0.0311417
-0.0318736
-0.0329175
-0.0342094
-0.0356801
-0.0372594
-0.0388787
-0.0404743
-0.0419898
-0.0433787
-0.0446067
-0.0456526
-0.0465113
-0.0471875
-0.0476848
-0.0481213
-0.0482168
-0.0481759
-0.0481442
-0.048119
-0.0480995
-0.0480843
-0.0480727
-0.0480641
-0.048058
-0.0480538
-0.0480513
-0.0480499
-0.0480492
-0.0480485
-0.0480491
-0.0480493
-0.045203
-0.0351044
-0.0189729
-0.00554589
-0.000671944
-1.96595e-05
-0.0351641
-0.0346838
-0.0338361
-0.0327712
-0.0316577
-0.0306609
-0.02992
-0.0295325
-0.0295479
-0.0299719
-0.0307751
-0.0319044
-0.0332928
-0.0348667
-0.0365509
-0.0382725
-0.0399639
-0.0415658
-0.0430306
-0.0443237
-0.0454251
-0.0463291
-0.047044
-0.0475795
-0.0479823
-0.0482565
-0.0482074
-0.0481678
-0.0481367
-0.0481128
-0.0480943
-0.0480801
-0.0480694
-0.0480615
-0.048056
-0.0480524
-0.0480502
-0.0480492
-0.0480488
-0.0480481
-0.0480488
-0.0480493
-0.0451737
-0.0350665
-0.0189383
-0.00553244
-0.000670182
-1.9608e-05
-0.0314512
-0.0310413
-0.0303443
-0.0295228
-0.0287492
-0.0281796
-0.0279313
-0.0280717
-0.0286184
-0.0295479
-0.0308078
-0.0323293
-0.034036
-0.0358494
-0.0376934
-0.0394976
-0.0412005
-0.0427531
-0.0441206
-0.0452837
-0.0462377
-0.0469935
-0.0475656
-0.0479655
-0.048303
-0.0482456
-0.0481958
-0.0481575
-0.0481279
-0.0481053
-0.0480881
-0.0480751
-0.0480654
-0.0480584
-0.0480536
-0.0480506
-0.048049
-0.0480484
-0.0480482
-0.0480476
-0.0480486
-0.0480492
-0.0451214
-0.0349951
-0.018873
-0.00550687
-0.000666787
-1.95084e-05
-0.0272668
-0.026987
-0.0265461
-0.0261013
-0.025812
-0.0258088
-0.0261736
-0.0269344
-0.0280717
-0.0295324
-0.0312454
-0.0331318
-0.0351114
-0.037107
-0.0390475
-0.0408708
-0.0425274
-0.0439827
-0.0452183
-0.0462309
-0.0470319
-0.0476391
-0.0480669
-0.0483531
-0.0482864
-0.0482268
-0.0481805
-0.0481447
-0.0481173
-0.0480965
-0.0480808
-0.0480691
-0.0480606
-0.0480547
-0.0480508
-0.0480485
-0.0480475
-0.0480473
-0.0480475
-0.0480471
-0.0480483
-0.0480492
-0.0450405
-0.0348837
-0.0187717
-0.00546723
-0.000661506
-1.93534e-05
-0.0227037
-0.0226185
-0.0225451
-0.0226145
-0.0229521
-0.0236448
-0.0247253
-0.0261736
-0.0279312
-0.02992
-0.0320561
-0.0342577
-0.0364482
-0.0385581
-0.0405276
-0.0423091
-0.0438696
-0.0451924
-0.0462779
-0.0471338
-0.0477749
-0.0482602
-0.0483959
-0.0483224
-0.0482559
-0.0482032
-0.0481617
-0.0481297
-0.0481051
-0.0480865
-0.0480726
-0.0480625
-0.0480553
-0.0480505
-0.0480476
-0.0480462
-0.0480458
-0.0480461
-0.0480466
-0.0480464
-0.048048
-0.0480491
-0.0449241
-0.034724
-0.0186276
-0.00541107
-0.000654015
-1.91333e-05
-0.017922
-0.018094
-0.0184943
-0.0192042
-0.0202918
-0.0217816
-0.0236448
-0.0258087
-0.0281795
-0.0306609
-0.0331645
-0.0356132
-0.037941
-0.0400929
-0.0420264
-0.0437133
-0.0451409
-0.046315
-0.0472493
-0.0479372
-0.0484765
-0.0484121
-0.0483393
-0.0482733
-0.0482189
-0.0481749
-0.0481399
-0.0481125
-0.0480914
-0.0480754
-0.0480635
-0.0480551
-0.0480494
-0.0480459
-0.0480441
-0.0480435
-0.0480438
-0.0480447
-0.0480456
-0.0480455
-0.0480475
-0.048049
-0.0447627
-0.0345036
-0.0184306
-0.0053346
-0.000643802
-1.88331e-05
-0.0131523
-0.0136332
-0.0145917
-0.0160354
-0.0179535
-0.0202917
-0.022952
-0.025812
-0.0287492
-0.0316577
-0.0344528
-0.0370693
-0.0394577
-0.0415827
-0.0434232
-0.0449745
-0.046245
-0.0472494
-0.048059
-0.048441
-0.0483874
-0.0483238
-0.0482675
-0.0482186
-0.0481772
-0.0481429
-0.0481151
-0.0480929
-0.0480757
-0.0480627
-0.0480532
-0.0480468
-0.0480427
-0.0480406
-0.04804
-0.0480403
-0.0480415
-0.048043
-0.0480443
-0.0480444
-0.048047
-0.0480489
-0.0445459
-0.0342061
-0.0181664
-0.00523233
-0.000630101
-1.84303e-05
-0.00868554
-0.00950341
-0.0110612
-0.013274
-0.0160354
-0.0192041
-0.0226145
-0.0261013
-0.0295227
-0.0327711
-0.0357719
-0.0384764
-0.0408558
-0.042897
-0.0446044
-0.0459922
-0.0470777
-0.0480108
-0.0483434
-0.0483165
-0.0482745
-0.0482333
-0.0481957
-0.0481621
-0.0481328
-0.0481079
-0.0480872
-0.0480705
-0.0480575
-0.0480479
-0.0480411
-0.0480369
-0.0480348
-0.0480342
-0.0480349
-0.0480364
-0.0480385
-0.0480408
-0.0480426
-0.0480429
-0.0480462
-0.0480487
-0.044267
-0.0338166
-0.0178217
-0.00509933
-0.000612213
-1.79046e-05
-0.0048496
-0.00599497
-0.00812705
-0.0110612
-0.0145916
-0.0184942
-0.022545
-0.026546
-0.0303442
-0.0338359
-0.03696
-0.0396863
-0.0420063
-0.0439311
-0.0454838
-0.0466806
-0.0477034
-0.0481945
-0.0482065
-0.048194
-0.0481737
-0.0481514
-0.0481291
-0.0481079
-0.0480887
-0.0480719
-0.0480576
-0.0480461
-0.0480373
-0.0480311
-0.0480273
-0.0480255
-0.0480254
-0.0480266
-0.0480288
-0.0480316
-0.0480347
-0.0480379
-0.0480403
-0.0480409
-0.0480451
-0.0480483
-0.0439387
-0.0333452
-0.0174054
-0.00493931
-0.000590631
-1.72708e-05
-0.00198336
-0.00339723
-0.00599494
-0.00950335
-0.0136331
-0.0180939
-0.0226184
-0.0269869
-0.0310412
-0.0346837
-0.0378661
-0.0405746
-0.0428182
-0.044628
-0.0460337
-0.047111
-0.0480069
-0.0480719
-0.0480977
-0.0481022
-0.0480974
-0.0480877
-0.0480757
-0.0480632
-0.0480511
-0.0480401
-0.0480309
-0.0480235
-0.0480183
-0.0480151
-0.0480138
-0.0480142
-0.048016
-0.0480189
-0.0480225
-0.0480265
-0.0480306
-0.0480347
-0.0480377
-0.0480386
-0.0480438
-0.0480478
-0.0436138
-0.0328656
-0.0169832
-0.00477808
-0.000568894
-1.66329e-05
-0.000413376
-0.00198334
-0.00484956
-0.00868547
-0.0131522
-0.0179219
-0.0227036
-0.0272666
-0.031451
-0.0351639
-0.0383653
-0.0410501
-0.0432393
-0.0449713
-0.0462728
-0.0473468
-0.0479317
-0.0480032
-0.0480385
-0.0480525
-0.0480555
-0.048052
-0.0480453
-0.048037
-0.0480286
-0.0480208
-0.0480142
-0.0480092
-0.0480061
-0.0480047
-0.048005
-0.0480068
-0.0480098
-0.0480137
-0.0480182
-0.0480229
-0.0480277
-0.0480323
-0.0480358
-0.0480369
-0.0480428
-0.0480474
-0.0433959
-0.0325373
-0.0166954
-0.00466888
-0.000554202
-1.6202e-05
)
;

boundaryField
{
    inlet
    {
        type            cyclic;
    }
    outlet
    {
        type            cyclic;
    }
    walls
    {
        type            calculated;
        value           nonuniform List<scalar> 
96
(
-5.32e-08
-2.3594e-07
-5.81194e-07
-1.08604e-06
-1.75464e-06
-2.59154e-06
-3.59664e-06
-4.75848e-06
-6.04737e-06
-7.41472e-06
-8.80226e-06
-1.0154e-05
-1.14256e-05
-1.25878e-05
-1.36261e-05
-1.45369e-05
-1.53244e-05
-1.59981e-05
-1.65701e-05
-1.70497e-05
-1.74468e-05
-1.77744e-05
-1.80468e-05
-1.82779e-05
-1.84805e-05
-1.86642e-05
-1.88357e-05
-1.89982e-05
-1.91522e-05
-1.92968e-05
-1.943e-05
-1.95503e-05
-1.96562e-05
-1.97463e-05
-1.98181e-05
-1.9868e-05
-1.98907e-05
-1.98798e-05
-1.98279e-05
-1.97277e-05
-1.95717e-05
-1.93501e-05
-1.90479e-05
-1.86422e-05
-1.81125e-05
-1.74736e-05
-1.68305e-05
-1.63959e-05
-1.63958e-05
-1.68304e-05
-1.74736e-05
-1.81125e-05
-1.86422e-05
-1.90479e-05
-1.93502e-05
-1.95718e-05
-1.97278e-05
-1.9828e-05
-1.98798e-05
-1.98908e-05
-1.9868e-05
-1.98182e-05
-1.97464e-05
-1.96563e-05
-1.95503e-05
-1.943e-05
-1.92968e-05
-1.91522e-05
-1.89982e-05
-1.88357e-05
-1.86642e-05
-1.84805e-05
-1.8278e-05
-1.80468e-05
-1.77745e-05
-1.74469e-05
-1.70497e-05
-1.65701e-05
-1.59981e-05
-1.53244e-05
-1.45369e-05
-1.36261e-05
-1.25878e-05
-1.14256e-05
-1.0154e-05
-8.80227e-06
-7.41472e-06
-6.04738e-06
-4.75848e-06
-3.59665e-06
-2.59154e-06
-1.75464e-06
-1.08604e-06
-5.81195e-07
-2.3594e-07
-5.32e-08
)
;
    }
    symPlanes
    {
        type            symmetry;
    }
}


// ************************************************************************* //
