/*--------------------------------*- C++ -*----------------------------------*\
| =========                 |                                                 |
| \\      /  F ield         | OpenFOAM: The Open Source CFD Toolbox           |
|  \\    /   O peration     | Version:  2506                                  |
|   \\  /    A nd           | Website:  www.openfoam.com                      |
|    \\/     M anipulation  |                                                 |
\*---------------------------------------------------------------------------*/
FoamFile
{
    version     2.0;
    format      ascii;
    arch        "LSB;label=32;scalar=64";
    class       volScalarField;
    location    "2137";
    object      I3;
}
// * * * * * * * * * * * * * * * * * * * * * * * * * * * * * * * * * * * * * //

dimensions      [0 0 0 0 0 0 0];

internalField   nonuniform List<scalar> 
2304
(
7.06524e-11
5.63759e-11
3.70112e-11
2.04773e-11
1.01068e-11
4.6532e-12
1.98626e-12
6.1907e-13
4.9344e-15
5.28729e-14
8.02409e-13
2.1923e-12
4.08769e-12
6.2736e-12
8.54026e-12
1.06445e-11
1.23345e-11
1.34287e-11
1.37296e-11
1.30528e-11
1.11996e-11
7.97328e-12
3.26106e-12
-2.91855e-12
-1.06669e-11
-1.97958e-11
-2.99505e-11
-4.0504e-11
-5.07692e-11
-6.03081e-11
-6.95574e-11
-8.10201e-11
-9.16889e-11
-9.95667e-11
-1.03041e-10
-1.00369e-10
-9.00759e-11
-7.20037e-11
-4.8428e-11
-2.42177e-11
-5.21078e-12
4.03248e-12
5.11663e-12
3.02888e-12
1.13429e-12
2.52497e-13
2.52402e-14
7.88536e-16
8.72776e-09
1.3552e-09
-8.77927e-09
-1.77863e-08
-2.39476e-08
-2.7661e-08
-2.98729e-08
-3.12619e-08
-3.21147e-08
-3.25024e-08
-3.24413e-08
-3.19833e-08
-3.12151e-08
-3.02504e-08
-2.91991e-08
-2.81775e-08
-2.72959e-08
-2.66339e-08
-2.62725e-08
-2.62912e-08
-2.67775e-08
-2.78201e-08
-2.94739e-08
-3.17386e-08
-3.46234e-08
-3.80214e-08
-4.17371e-08
-4.54675e-08
-4.8881e-08
-5.17441e-08
-5.42304e-08
-5.70621e-08
-5.91921e-08
-5.98046e-08
-5.83058e-08
-5.4116e-08
-4.68425e-08
-3.66762e-08
-2.47583e-08
-1.31446e-08
-4.12793e-09
5.93522e-10
1.67575e-09
1.15289e-09
4.88584e-10
1.27556e-10
1.10311e-11
2.52408e-14
6.33875e-07
4.32875e-07
1.5885e-07
-7.13177e-08
-2.14273e-07
-2.87615e-07
-3.22676e-07
-3.40606e-07
-3.50097e-07
-3.52939e-07
-3.49078e-07
-3.39396e-07
-3.25866e-07
-3.11417e-07
-2.99129e-07
-2.92517e-07
-2.95055e-07
-3.09297e-07
-3.37669e-07
-3.82353e-07
-4.45573e-07
-5.29595e-07
-6.35686e-07
-7.63928e-07
-9.14896e-07
-1.08551e-06
-1.27003e-06
-1.45914e-06
-1.64166e-06
-1.80734e-06
-1.95617e-06
-2.1064e-06
-2.22395e-06
-2.28139e-06
-2.25758e-06
-2.13118e-06
-1.88666e-06
-1.52744e-06
-1.08877e-06
-6.38757e-07
-2.57865e-07
-2.94412e-08
4.73993e-08
4.31398e-08
1.98256e-08
3.9187e-09
1.27557e-10
2.525e-13
2.07761e-05
1.98664e-05
1.85851e-05
1.76802e-05
1.73269e-05
1.73471e-05
1.75114e-05
1.76812e-05
1.78077e-05
1.78905e-05
1.79412e-05
1.79643e-05
1.7955e-05
1.79005e-05
1.77839e-05
1.75825e-05
1.72705e-05
1.68258e-05
1.62253e-05
1.54469e-05
1.44692e-05
1.32719e-05
1.18418e-05
1.01744e-05
8.25963e-06
6.10968e-06
3.75251e-06
1.24167e-06
-1.34906e-06
-3.92191e-06
-6.39263e-06
-8.79488e-06
-1.09513e-05
-1.27078e-05
-1.39162e-05
-1.44008e-05
-1.39961e-05
-1.26153e-05
-1.03194e-05
-7.33717e-06
-3.961e-06
-1.25033e-06
1.04882e-07
3.59223e-07
1.59441e-07
1.98256e-08
4.88586e-10
1.1343e-12
8.53609e-05
8.02254e-05
7.24104e-05
6.53157e-05
6.01867e-05
5.68175e-05
5.45712e-05
5.29696e-05
5.17759e-05
5.09046e-05
5.03131e-05
4.99427e-05
4.97117e-05
4.95214e-05
4.92749e-05
4.88716e-05
4.82166e-05
4.72412e-05
4.58805e-05
4.40748e-05
4.17646e-05
3.88799e-05
3.53306e-05
3.10591e-05
2.6093e-05
2.04903e-05
1.43398e-05
7.79928e-06
1.06449e-06
-5.57744e-06
-1.1915e-05
-1.96042e-05
-2.6538e-05
-3.21387e-05
-3.61678e-05
-3.84873e-05
-3.91834e-05
-3.85472e-05
-3.67596e-05
-3.32027e-05
-2.41116e-05
-1.19661e-05
-2.9478e-06
4.14023e-07
3.59223e-07
4.31399e-08
1.15289e-09
3.02889e-12
5.73176e-05
4.54434e-05
2.8047e-05
1.12398e-05
-2.109e-06
-1.18886e-05
-1.90173e-05
-2.43277e-05
-2.83275e-05
-3.12819e-05
-3.33721e-05
-3.47929e-05
-3.57656e-05
-3.65273e-05
-3.72894e-05
-3.8247e-05
-3.95567e-05
-4.1297e-05
-4.35237e-05
-4.62835e-05
-4.96439e-05
-5.37277e-05
-5.87491e-05
-6.49082e-05
-7.22201e-05
-8.06566e-05
-9.01632e-05
-0.000100581
-0.000111769
-0.000123424
-0.000134541
-0.000143673
-0.000151564
-0.000158227
-0.000163391
-0.000166534
-0.000166592
-0.000161795
-0.000150376
-0.000133299
-9.91154e-05
-5.55552e-05
-1.89736e-05
-2.94779e-06
1.04883e-07
4.73994e-08
1.67576e-09
5.11665e-12
1.74177e-05
8.60047e-06
-3.27624e-06
-1.45674e-05
-2.33544e-05
-2.97626e-05
-3.46091e-05
-3.85444e-05
-4.19235e-05
-4.48987e-05
-4.7565e-05
-5.00513e-05
-5.25242e-05
-5.51743e-05
-5.81611e-05
-6.16298e-05
-6.56959e-05
-7.04094e-05
-7.58487e-05
-8.21523e-05
-8.95571e-05
-9.84038e-05
-0.0001091
-0.000122121
-0.000138005
-0.000157171
-0.000180068
-0.000207051
-0.000238562
-0.000274714
-0.00031391
-0.000339713
-0.000364056
-0.000388915
-0.000412359
-0.000431033
-0.000440364
-0.000435334
-0.000411878
-0.000376031
-0.000288413
-0.000154811
-5.55552e-05
-1.19661e-05
-1.25032e-06
-2.9441e-08
5.93527e-10
4.0325e-12
0.000133488
0.000125205
0.000113024
0.000100692
9.02579e-05
8.18945e-05
7.49926e-05
6.90012e-05
6.35954e-05
5.862e-05
5.39573e-05
4.94399e-05
4.48569e-05
3.99782e-05
3.46289e-05
2.86611e-05
2.19538e-05
1.44441e-05
5.98423e-06
-3.69924e-06
-1.50341e-05
-2.86e-05
-4.50786e-05
-6.51806e-05
-8.97978e-05
-0.00011965
-0.000155483
-0.000197753
-0.000246748
-0.000301791
-0.000361393
-0.000421218
-0.00047852
-0.000528378
-0.000563629
-0.000577868
-0.00056936
-0.00054354
-0.000510391
-0.000503041
-0.000490635
-0.000288413
-9.91153e-05
-2.41116e-05
-3.96099e-06
-2.57865e-07
-4.12792e-09
-5.21075e-12
0.000203008
0.000191787
0.000173823
0.000154877
0.000137944
0.000123683
0.000111595
0.000101074
9.16953e-05
8.32025e-05
7.53766e-05
6.79385e-05
6.0565e-05
5.29245e-05
4.47805e-05
3.59379e-05
2.62192e-05
1.54966e-05
3.48563e-06
-1.0288e-05
-2.64845e-05
-4.59875e-05
-6.98059e-05
-9.89457e-05
-0.000134543
-0.000177411
-0.000228257
-0.000286922
-0.000352511
-0.000422081
-0.000490923
-0.00055839
-0.000611763
-0.000641626
-0.000641801
-0.000612507
-0.000563351
-0.000510951
-0.000469429
-0.000460792
-0.000503041
-0.000376031
-0.000133298
-3.32027e-05
-7.33716e-06
-6.38757e-07
-1.31446e-08
-2.42176e-11
0.000194874
0.000184265
0.00016704
0.000148299
0.000130803
0.000115295
0.000101429
8.87288e-05
7.68582e-05
6.56201e-05
5.48277e-05
4.42066e-05
3.34252e-05
2.21412e-05
1.01342e-05
-2.79493e-06
-1.68946e-05
-3.24244e-05
-4.99331e-05
-7.02445e-05
-9.44168e-05
-0.000123749
-0.00015958
-0.000203147
-0.00025575
-0.000317869
-0.000389511
-0.000468731
-0.000552231
-0.000633501
-0.000703859
-0.000752879
-0.000769842
-0.00074964
-0.000695461
-0.000620476
-0.000545717
-0.000490715
-0.00046386
-0.000469429
-0.000510391
-0.000411878
-0.000150376
-3.67595e-05
-1.03194e-05
-1.08877e-06
-2.47583e-08
-4.84279e-11
0.000214078
0.000203504
0.000186365
0.000167066
0.000148235
0.000130753
0.000114427
9.88818e-05
8.38433e-05
6.91555e-05
5.46589e-05
4.00825e-05
2.50833e-05
9.29342e-06
-7.51243e-06
-2.55925e-05
-4.5364e-05
-6.73176e-05
-9.23653e-05
-0.000121759
-0.000156975
-0.000199614
-0.000251168
-0.000312692
-0.000385045
-0.000467303
-0.000557541
-0.000650381
-0.000739086
-0.000813285
-0.000861693
-0.000873495
-0.000842125
-0.000771964
-0.000678983
-0.000586755
-0.000519316
-0.000490271
-0.000490715
-0.000510951
-0.00054354
-0.000435333
-0.000161794
-3.85472e-05
-1.26153e-05
-1.52744e-06
-3.66761e-08
-7.20035e-11
0.000241455
0.000230728
0.000213046
0.000192477
0.000171603
0.000151487
0.000132086
0.000113094
9.42524e-05
7.54199e-05
5.6454e-05
3.70836e-05
1.69486e-05
-4.36945e-06
-2.71365e-05
-5.17485e-05
-7.89161e-05
-0.000109454
-0.000144726
-0.000186445
-0.000236368
-0.000296164
-0.000367032
-0.000449036
-0.000541605
-0.00064085
-0.000741609
-0.000833849
-0.000907583
-0.000950912
-0.000954501
-0.000912968
-0.000830654
-0.000724424
-0.000620241
-0.000543551
-0.000509729
-0.000519317
-0.000545717
-0.000563351
-0.00056936
-0.000440364
-0.000166592
-3.91834e-05
-1.39961e-05
-1.88666e-06
-4.68425e-08
-9.00757e-11
0.000266483
0.000255675
0.000237422
0.00021543
0.000192225
0.000169105
0.000146232
0.000123367
0.000100239
7.66889e-05
5.2577e-05
2.76249e-05
1.44139e-06
-2.64835e-05
-5.65068e-05
-8.92592e-05
-0.000125875
-0.000167546
-0.000216119
-0.000273635
-0.000341813
-0.000421896
-0.000513964
-0.000615833
-0.000724188
-0.000830577
-0.000926061
-0.000997361
-0.00103673
-0.00102816
-0.000971513
-0.000874544
-0.00075951
-0.00064814
-0.000566141
-0.000530935
-0.000543551
-0.000586756
-0.000620476
-0.000612507
-0.000577868
-0.000431033
-0.000166534
-3.84873e-05
-1.44008e-05
-2.13118e-06
-5.41159e-08
-1.00369e-10
0.000288829
0.000278035
0.00025933
0.000235875
0.000210071
0.00018351
0.000156658
0.000129389
0.000101408
7.25009e-05
4.25074e-05
1.11137e-05
-2.21393e-05
-5.79243e-05
-9.67542e-05
-0.000139594
-0.000188114
-0.000243849
-0.000308987
-0.000385553
-0.000474598
-0.000576081
-0.000687736
-0.000803654
-0.000916797
-0.00101591
-0.00109306
-0.00112227
-0.00109742
-0.00102496
-0.000915113
-0.000784767
-0.000661479
-0.000578196
-0.000547044
-0.000566142
-0.000620241
-0.000678984
-0.000695461
-0.000641802
-0.000563629
-0.000412359
-0.000163391
-3.61678e-05
-1.39162e-05
-2.25758e-06
-5.83058e-08
-1.03041e-10
0.000308625
0.000298007
0.000279053
0.000254167
0.000225507
0.000194988
0.000163495
0.000131119
9.75551e-05
6.25135e-05
2.57722e-05
-1.30663e-05
-5.4598e-05
-9.97651e-05
-0.000149288
-0.000204533
-0.000267785
-0.000340656
-0.000425277
-0.000523022
-0.000633188
-0.000753196
-0.000877103
-0.000995459
-0.00110448
-0.00117431
-0.00119154
-0.00115439
-0.00104268
-0.000905503
-0.000767363
-0.000659479
-0.000580854
-0.000548634
-0.000578196
-0.00064814
-0.000724424
-0.000771964
-0.00074964
-0.000641626
-0.000528378
-0.000388915
-0.000158227
-3.21387e-05
-1.27078e-05
-2.28139e-06
-5.98046e-08
-9.95665e-11
0.000325117
0.000314892
0.00029598
0.000269815
0.000238138
0.000203151
0.000166267
0.000127923
8.78658e-05
4.57225e-05
1.16968e-06
-4.63405e-05
-9.76405e-05
-0.000154083
-0.000216568
-0.000286837
-0.000367717
-0.00046031
-0.000565895
-0.000684177
-0.000811281
-0.000941561
-0.00107073
-0.00117781
-0.00123849
-0.00123982
-0.00114807
-0.00101685
-0.000859857
-0.000701625
-0.000571676
-0.000502495
-0.000520592
-0.000580854
-0.00066148
-0.00075951
-0.000830654
-0.000842125
-0.000769842
-0.000611763
-0.00047852
-0.000364056
-0.000151564
-2.6538e-05
-1.09513e-05
-2.22394e-06
-5.9192e-08
-9.16887e-11
0.000337542
0.000327924
0.00030937
0.000282164
0.000247424
0.000207526
0.000164454
0.000119133
7.14569e-05
2.09742e-05
-3.27685e-05
-9.05262e-05
-0.000153459
-0.000223452
-0.000301451
-0.0003893
-0.000489906
-0.000603016
-0.000727773
-0.000861442
-0.00100021
-0.00113411
-0.00123448
-0.00128679
-0.00123554
-0.00112785
-0.000977469
-0.000801285
-0.00063105
-0.000492485
-0.000417173
-0.000414034
-0.000502495
-0.00065948
-0.000784768
-0.000874545
-0.000912968
-0.000873495
-0.000752879
-0.00055839
-0.000421218
-0.000339713
-0.000143673
-1.96043e-05
-8.7949e-06
-2.1064e-06
-5.7062e-08
-8.102e-11
0.000345186
0.000336357
0.000318463
0.0002905
0.000252755
0.00020759
0.000157519
0.000104068
4.73705e-05
-1.30713e-05
-7.7783e-05
-0.000147754
-0.00022447
-0.000310301
-0.000406085
-0.000513072
-0.000633104
-0.000764355
-0.000906937
-0.00105463
-0.00118342
-0.00127587
-0.00128658
-0.00121622
-0.00109213
-0.000925024
-0.000741422
-0.000561184
-0.000414046
-0.000328721
-0.000329615
-0.000417173
-0.000571676
-0.000767364
-0.000915113
-0.000971513
-0.000954501
-0.000861693
-0.000703859
-0.000490923
-0.000361393
-0.00031391
-0.000134541
-1.19151e-05
-6.39266e-06
-1.95617e-06
-5.42304e-08
-6.95573e-11
0.000347276
0.000339378
0.000322396
0.000293958
0.000253329
0.000202606
0.000144702
8.17846e-05
1.43028e-05
-5.80652e-05
-0.000135715
-0.00021995
-0.000312399
-0.000415445
-0.000529888
-0.000656264
-0.000801127
-0.000951976
-0.00109623
-0.00121881
-0.00128571
-0.00126236
-0.00118123
-0.00104362
-0.000872015
-0.000680319
-0.000492116
-0.00033663
-0.000245625
-0.000240368
-0.000328721
-0.000492485
-0.000701626
-0.000905504
-0.00102496
-0.00102816
-0.000950912
-0.000813285
-0.000633501
-0.000422081
-0.000301791
-0.000274714
-0.000123424
-5.57751e-06
-3.92194e-06
-1.80734e-06
-5.17441e-08
-6.03081e-11
0.000343122
0.000336225
0.000320299
0.000291582
0.000248156
0.000191571
0.000124891
5.0867e-05
-2.94601e-05
-0.000115586
-0.000207677
-0.000307741
-0.000418477
-0.000546188
-0.000686149
-0.000835178
-0.000984564
-0.00112594
-0.00122577
-0.00125278
-0.00122381
-0.00113305
-0.000992375
-0.000816232
-0.000618621
-0.000424611
-0.000265754
-0.000170158
-0.000160823
-0.000245626
-0.000414047
-0.000631051
-0.000859858
-0.00104268
-0.00109742
-0.00103673
-0.000907583
-0.000739087
-0.000552231
-0.000352511
-0.000246748
-0.000238563
-0.000111769
1.06441e-06
-1.3491e-06
-1.64166e-06
-4.8881e-08
-5.07692e-11
0.000332094
0.000326171
0.000311283
0.000282303
0.00023601
0.000173096
9.63896e-05
9.27856e-06
-8.5708e-05
-0.000186928
-0.000299546
-0.000424678
-0.000560448
-0.000704902
-0.000856709
-0.0010079
-0.00111439
-0.00118601
-0.00120973
-0.00117433
-0.00108043
-0.00093928
-0.000757976
-0.000556363
-0.000360954
-0.000199999
-0.000102265
-8.91638e-05
-0.000170159
-0.000336631
-0.000561185
-0.000801285
-0.00101685
-0.00115439
-0.00112227
-0.000997361
-0.000833849
-0.000650381
-0.000468731
-0.000286922
-0.000197753
-0.000207051
-0.000100581
7.79919e-06
1.24163e-06
-1.45914e-06
-4.54675e-08
-4.05041e-11
0.000313557
0.000308465
0.000294379
0.000264875
0.000215333
0.000145226
5.67453e-05
-4.53113e-05
-0.000156322
-0.000284207
-0.000418674
-0.000562066
-0.000711712
-0.000845216
-0.000970325
-0.00107421
-0.00114157
-0.00116001
-0.00112234
-0.00102993
-0.000884616
-0.000699473
-0.00049584
-0.000300087
-0.000139497
-4.07521e-05
-2.51993e-05
-0.000102265
-0.000265755
-0.000492117
-0.000741422
-0.00097747
-0.00114807
-0.00119154
-0.00109306
-0.000926061
-0.000741609
-0.000557542
-0.000389511
-0.000228257
-0.000155483
-0.000180068
-9.01632e-05
1.43397e-05
3.75246e-06
-1.27003e-06
-4.17371e-08
-2.99506e-11
0.00028686
0.000282313
0.000268518
0.000237829
0.000184127
0.000105268
3.08043e-06
-0.00011519
-0.000255232
-0.000400129
-0.000538486
-0.000673461
-0.000807738
-0.000930976
-0.00103183
-0.00109459
-0.00111319
-0.00107499
-0.000978134
-0.000827996
-0.000640333
-0.000437175
-0.000242325
-8.3052e-05
1.52711e-05
3.26202e-05
-4.07524e-05
-0.000199999
-0.000424611
-0.00068032
-0.000925024
-0.00112785
-0.00123982
-0.00117431
-0.00101591
-0.000830577
-0.00064085
-0.000467303
-0.000317869
-0.000177411
-0.00011965
-0.000157171
-8.06567e-05
2.04903e-05
6.10963e-06
-1.08551e-06
-3.80214e-08
-1.97959e-11
0.000251294
0.000246842
0.000232478
0.000199399
0.000139795
4.996e-05
-6.72417e-05
-0.000212449
-0.000368457
-0.000498168
-0.000632575
-0.000766231
-0.000888207
-0.000989442
-0.00105296
-0.00106744
-0.00102393
-0.000921438
-0.000769406
-0.00058236
-0.000380074
-0.000187523
-3.02615e-05
6.6996e-05
8.53104e-05
1.52707e-05
-0.000139498
-0.000360954
-0.000618622
-0.000872015
-0.00109213
-0.00123554
-0.00123849
-0.00110448
-0.000916797
-0.000724188
-0.000541605
-0.000385045
-0.00025575
-0.000134543
-8.9798e-05
-0.000138005
-7.22202e-05
2.6093e-05
8.25958e-06
-9.14899e-07
-3.46234e-08
-1.0667e-11
0.000206035
0.000201033
0.000184821
0.000147431
7.92466e-05
-2.35666e-05
-0.000161343
-0.000325235
-0.00045602
-0.000586253
-0.00072009
-0.000844185
-0.000942802
-0.00100202
-0.00101095
-0.000964108
-0.000862314
-0.00071071
-0.000524824
-0.000324967
-0.000135031
1.94315e-05
0.000115187
0.000134046
6.69957e-05
-8.30526e-05
-0.000300088
-0.000556364
-0.000816232
-0.00104362
-0.00121622
-0.00128679
-0.00117781
-0.000995458
-0.000803653
-0.000615832
-0.000449036
-0.000312692
-0.000203147
-9.89457e-05
-6.51808e-05
-0.000122122
-6.49082e-05
3.10591e-05
1.01744e-05
-7.63931e-07
-3.17386e-08
-2.91863e-12
0.000150025
0.000143597
0.00012374
7.94347e-05
1.65306e-07
-0.000115408
-0.000277789
-0.000415389
-0.000537157
-0.000668198
-0.000787727
-0.000882079
-0.000938957
-0.000948349
-0.000902017
-0.000800404
-0.000651179
-0.000467696
-0.000270914
-8.45597e-05
6.68208e-05
0.000160576
0.000179602
0.000115187
-3.02621e-05
-0.000242325
-0.000495841
-0.000757977
-0.000992376
-0.00118122
-0.00128658
-0.00123448
-0.00107073
-0.000877103
-0.000687735
-0.000513963
-0.000367032
-0.000251168
-0.00015958
-6.98059e-05
-4.50787e-05
-0.0001091
-5.87491e-05
3.53305e-05
1.18418e-05
-6.35689e-07
-2.94739e-08
3.26095e-12
8.17074e-05
7.26912e-05
4.69081e-05
-6.85251e-06
-9.76923e-05
-0.00023976
-0.000384435
-0.000491772
-0.000611561
-0.000723218
-0.000814333
-0.000870412
-0.000879471
-0.000835008
-0.000735669
-0.000589116
-0.00040981
-0.000217176
-3.50321e-05
0.000112595
0.00020402
0.000222767
0.000160576
1.94309e-05
-0.000187524
-0.000437175
-0.000699473
-0.000939281
-0.00113305
-0.00126236
-0.00127586
-0.00113411
-0.00094156
-0.000753195
-0.00057608
-0.000421896
-0.000296163
-0.000199614
-0.000123749
-4.59874e-05
-2.86001e-05
-9.84039e-05
-5.37277e-05
3.88798e-05
1.32719e-05
-5.29598e-07
-2.78201e-08
7.97324e-12
-1.33238e-06
-1.4297e-05
-4.81167e-05
-0.000112284
-0.000224237
-0.000372937
-0.000460777
-0.000559139
-0.000657982
-0.000742471
-0.000795719
-0.000804729
-0.000761765
-0.000666124
-0.000523915
-0.000349426
-0.000162357
1.46437e-05
0.000157923
0.000246451
0.000264475
0.00020402
6.68202e-05
-0.000135032
-0.000380074
-0.000640334
-0.000884616
-0.00108043
-0.00122381
-0.00128571
-0.00118342
-0.00100021
-0.00081128
-0.000633187
-0.000474597
-0.000341813
-0.000236367
-0.000156974
-9.44166e-05
-2.64844e-05
-1.50342e-05
-8.95572e-05
-4.96438e-05
4.17646e-05
1.44691e-05
-4.45576e-07
-2.67774e-08
1.11995e-11
-0.00010223
-0.000120059
-0.000162295
-0.000244758
-0.000369711
-0.000455362
-0.000523661
-0.000602221
-0.000672189
-0.000718212
-0.000724809
-0.000682935
-0.000590634
-0.000453855
-0.000285487
-0.000104729
6.60586e-05
0.00020418
0.000289161
0.000305804
0.000246451
0.000112595
-8.45603e-05
-0.000324968
-0.00058236
-0.000827996
-0.00102993
-0.00117433
-0.00125278
-0.00121881
-0.00105463
-0.00086144
-0.000684175
-0.00052302
-0.000385552
-0.000273635
-0.000186445
-0.000121758
-7.02442e-05
-1.02878e-05
-3.69925e-06
-8.21524e-05
-4.62833e-05
4.40748e-05
1.54468e-05
-3.82355e-07
-2.62911e-08
1.30529e-11
-0.000222653
-0.000245514
-0.00030801
-0.000404506
-0.000480809
-0.00051647
-0.000568554
-0.000614231
-0.000644648
-0.000643641
-0.00059989
-0.000509839
-0.000377942
-0.000216292
-4.27471e-05
0.000121086
0.000253131
0.000333736
0.00034821
0.000289161
0.000157923
-3.50326e-05
-0.000270914
-0.000524824
-0.000769406
-0.000978133
-0.00112234
-0.00120973
-0.00122577
-0.00109623
-0.000906935
-0.000727772
-0.000565894
-0.000425276
-0.000308986
-0.000216118
-0.000144725
-9.23647e-05
-4.99327e-05
3.48595e-06
5.98429e-06
-7.58487e-05
-4.35235e-05
4.58805e-05
1.62253e-05
-3.37671e-07
-2.62724e-08
1.37296e-11
-0.000382056
-0.000418442
-0.000483948
-0.000539215
-0.00054925
-0.000566873
-0.000580956
-0.000586014
-0.00056864
-0.000517021
-0.000425501
-0.00029668
-0.000140918
2.52029e-05
0.000181458
0.000306711
0.000382051
0.000393432
0.000333736
0.00020418
1.46433e-05
-0.000217176
-0.000467696
-0.000710709
-0.000921437
-0.00107498
-0.00116001
-0.00118601
-0.00112593
-0.000951974
-0.000764353
-0.000603014
-0.000460309
-0.000340654
-0.000243848
-0.000167545
-0.000109453
-6.73169e-05
-3.24239e-05
1.5497e-05
1.44442e-05
-7.04093e-05
-4.12967e-05
4.72413e-05
1.68258e-05
-3.09298e-07
-2.66338e-08
1.34289e-11
-0.000585572
-0.000618409
-0.000630983
-0.000620402
-0.000605218
-0.00058447
-0.000555315
-0.000511178
-0.000442299
-0.000342509
-0.000212345
-6.00396e-05
9.98204e-05
0.00024862
0.000366662
0.000436044
0.000443415
0.000382051
0.000253131
6.60583e-05
-0.000162357
-0.00040981
-0.000651178
-0.000862313
-0.00102393
-0.00111319
-0.00114157
-0.00111439
-0.000984561
-0.000801124
-0.000633101
-0.000489903
-0.000367715
-0.000267783
-0.000188113
-0.000125873
-7.89151e-05
-4.53632e-05
-1.6894e-05
2.62197e-05
2.1954e-05
-6.56958e-05
-3.95563e-05
4.82167e-05
1.72705e-05
-2.95055e-07
-2.72957e-08
1.23346e-11
-0.000769929
-0.000760073
-0.000733855
-0.000692484
-0.000637748
-0.000566238
-0.000484841
-0.000387451
-0.000269385
-0.000130376
2.35113e-05
0.00018007
0.000322907
0.000434139
0.000497305
0.000500006
0.000436044
0.00030671
0.000121086
-0.000104729
-0.000349426
-0.000589115
-0.000800402
-0.000964106
-0.00106743
-0.00109459
-0.0010742
-0.0010079
-0.000835174
-0.000656261
-0.000513069
-0.000389297
-0.000286835
-0.000204531
-0.000139593
-8.92578e-05
-5.17474e-05
-2.55916e-05
-2.7942e-06
3.59385e-05
2.86614e-05
-6.16296e-05
-3.82465e-05
4.88717e-05
1.75824e-05
-2.92517e-07
-2.81773e-08
1.06448e-11
-0.000916648
-0.000885453
-0.000829558
-0.000743215
-0.000629748
-0.000503097
-0.000366229
-0.000218153
-5.98479e-05
0.000103646
0.00026243
0.000402693
0.000508919
0.000566524
0.000564455
0.000497305
0.000366661
0.000181458
-4.27471e-05
-0.000285487
-0.000523914
-0.000735667
-0.000902014
-0.00101095
-0.00105296
-0.00103183
-0.000970322
-0.000856705
-0.000686145
-0.000529885
-0.000406082
-0.000301448
-0.000216565
-0.000149286
-9.67524e-05
-5.65053e-05
-2.71352e-05
-7.5114e-06
1.01351e-05
4.47813e-05
3.46293e-05
-5.81609e-05
-3.72889e-05
4.92751e-05
1.77839e-05
-2.99128e-07
-2.91989e-08
8.54045e-12
-0.00104836
-0.000996022
-0.000891443
-0.000745644
-0.000575315
-0.000391723
-0.000202687
-1.31794e-05
0.000170608
0.000339973
0.000483549
0.000588516
0.000642672
0.000636756
0.000566524
0.000434139
0.00024862
2.52028e-05
-0.000216292
-0.000453855
-0.000666122
-0.000835006
-0.000948347
-0.00100202
-0.000989439
-0.000930973
-0.000845213
-0.000704898
-0.000546184
-0.000415442
-0.000310298
-0.00022345
-0.00015408
-9.97629e-05
-5.79224e-05
-2.64818e-05
-4.36806e-06
9.29458e-06
2.21422e-05
5.29254e-05
3.99786e-05
-5.5174e-05
-3.65266e-05
4.95215e-05
1.79004e-05
-3.11415e-07
-3.02501e-08
6.27403e-12
-0.00113136
-0.00104818
-0.000897371
-0.000698161
-0.000471471
-0.000235549
-4.41817e-06
0.00021138
0.000402012
0.000557423
0.000667291
0.000722078
0.000714759
0.000642672
0.000508919
0.000322907
9.98199e-05
-0.000140918
-0.000377942
-0.000590633
-0.000761763
-0.000879469
-0.000938955
-0.000942799
-0.000888204
-0.000807735
-0.000711709
-0.000560443
-0.000418473
-0.000312396
-0.000224467
-0.000153456
-9.7638e-05
-5.45957e-05
-2.21373e-05
1.44317e-06
1.69501e-05
2.50845e-05
3.34263e-05
6.0566e-05
4.48574e-05
-5.25239e-05
-3.57649e-05
4.97119e-05
1.7955e-05
-3.25863e-07
-3.12148e-08
4.08809e-12
-0.001151
-0.00104278
-0.000848992
-0.000598823
-0.000322413
-4.56517e-05
0.000211544
0.00043462
0.000612348
0.000735704
0.000797527
0.000793223
0.000722078
0.000588515
0.000402692
0.000180069
-6.00406e-05
-0.000296681
-0.000509839
-0.000682934
-0.000804728
-0.00087041
-0.000882077
-0.000844182
-0.000766229
-0.000673458
-0.000562062
-0.000424673
-0.000307737
-0.000219946
-0.000147751
-9.05233e-05
-4.63379e-05
-1.30639e-05
1.11158e-05
2.76268e-05
3.70852e-05
4.00839e-05
4.42078e-05
6.79396e-05
4.94405e-05
-5.00509e-05
-3.47921e-05
4.99429e-05
1.79642e-05
-3.39391e-07
-3.19829e-08
2.19313e-12
-0.0011079
-0.000976462
-0.000744943
-0.000453205
-0.000140784
0.00015934
0.000422762
0.000633156
0.000780147
0.00085762
0.00086298
0.000797527
0.00066729
0.000483547
0.000262428
2.35094e-05
-0.000212347
-0.000425502
-0.000599891
-0.00072481
-0.000795719
-0.000814332
-0.000787725
-0.000720088
-0.000632573
-0.000538484
-0.000418669
-0.000299541
-0.000207673
-0.000135711
-7.77797e-05
-3.27656e-05
1.17233e-06
2.57746e-05
4.25095e-05
5.2579e-05
5.64556e-05
5.46604e-05
5.4829e-05
7.53777e-05
5.39579e-05
-4.75646e-05
-3.33712e-05
5.03134e-05
1.79412e-05
-3.49072e-07
-3.24408e-08
8.03273e-13
-0.0010003
-0.000851503
-0.000593632
-0.000276313
5.26746e-05
0.000355021
0.000604114
0.000784047
0.000886903
0.000910536
0.000857619
0.000735703
0.000557421
0.000339971
0.000103643
-0.00013038
-0.000342512
-0.000517024
-0.000643643
-0.000718214
-0.000742472
-0.000723219
-0.000668197
-0.000586253
-0.000498168
-0.000400124
-0.000284202
-0.000186924
-0.000115582
-5.80618e-05
-1.30682e-05
2.09769e-05
4.5725e-05
6.25158e-05
7.2503e-05
7.66907e-05
7.54215e-05
6.91569e-05
6.56214e-05
8.32037e-05
5.86206e-05
-4.48983e-05
-3.12809e-05
5.09049e-05
1.78905e-05
-3.52931e-07
-3.25019e-08
5.39932e-14
-0.00083837
-0.000681285
-0.000413351
-9.13342e-05
0.000231591
0.000514679
0.000731415
0.00086773
0.000918828
0.000886903
0.000780146
0.000612346
0.000402009
0.000170605
-5.98521e-05
-0.000269389
-0.000442303
-0.000568645
-0.000644652
-0.000672193
-0.000657985
-0.000611563
-0.000537159
-0.000456021
-0.000368453
-0.000255227
-0.000156318
-8.57047e-05
-2.94569e-05
1.43058e-05
4.73733e-05
7.14595e-05
8.78681e-05
9.75572e-05
0.000101409
0.000100241
9.4254e-05
8.38447e-05
7.68595e-05
9.16965e-05
6.3596e-05
-4.19231e-05
-2.83265e-05
5.17763e-05
1.78077e-05
-3.50086e-07
-3.2114e-08
6.40287e-15
-0.000642577
-0.000488596
-0.000229936
7.39343e-05
0.000368653
0.000614059
0.000785239
0.000870348
0.00086773
0.000784046
0.000633155
0.000434618
0.000211376
-1.31839e-05
-0.000218159
-0.000387457
-0.000511184
-0.00058602
-0.000614237
-0.000602226
-0.000559143
-0.000491776
-0.000415392
-0.000325233
-0.000212446
-0.000115188
-4.53092e-05
9.2808e-06
5.08693e-05
8.17868e-05
0.00010407
0.000119135
0.000127924
0.000131121
0.000129391
0.000123368
0.000113095
9.8883e-05
8.87299e-05
0.000101075
6.90018e-05
-3.85439e-05
-2.43267e-05
5.297e-05
1.76812e-05
-3.40591e-07
-3.12611e-08
6.21452e-13
-0.000441075
-0.000302081
-7.17041e-05
0.000193322
0.000441797
0.000636328
0.000754066
0.000785239
0.000731414
0.000604113
0.00042276
0.000211541
-4.42211e-06
-0.000202692
-0.000366235
-0.000484847
-0.000555322
-0.000580963
-0.000568561
-0.000523667
-0.000460784
-0.000384441
-0.00027779
-0.000161343
-6.72422e-05
3.08052e-06
5.67458e-05
9.63905e-05
0.000124892
0.000144703
0.00015752
0.000164456
0.000166268
0.000163496
0.000156659
0.000146233
0.000132087
0.000114428
0.00010143
0.000111596
7.49931e-05
-3.46085e-05
-1.90162e-05
5.45716e-05
1.75115e-05
-3.22661e-07
-2.98721e-08
1.98809e-12
-0.000263175
-0.000148934
3.84133e-05
0.000249716
0.00044008
0.000575865
0.000636328
0.00061406
0.00051468
0.000355021
0.000159339
-4.56538e-05
-0.000235553
-0.000391727
-0.000503102
-0.000566244
-0.000584477
-0.00056688
-0.000516477
-0.000455368
-0.000372941
-0.000239763
-0.000115411
-2.35695e-05
4.99575e-05
0.000105266
0.000145224
0.000173095
0.00019157
0.000202606
0.00020759
0.000207526
0.000203152
0.000194988
0.000183511
0.000169105
0.000151487
0.000130754
0.000115296
0.000123684
8.1895e-05
-2.9762e-05
-1.18875e-05
5.6818e-05
1.73472e-05
-2.87596e-07
-2.76602e-08
4.65503e-12
-0.00013036
-4.62414e-05
9.04177e-05
0.000240647
0.000367054
0.000440082
0.000441799
0.000368656
0.000231594
5.26764e-05
-0.000140783
-0.000322413
-0.000471472
-0.000575318
-0.000629752
-0.000637752
-0.000605222
-0.000549255
-0.000480814
-0.000369716
-0.000224241
-9.76964e-05
1.6125e-07
7.92426e-05
0.000139791
0.000184124
0.00021533
0.000236008
0.000248154
0.000253328
0.000252754
0.000247423
0.000238138
0.000225507
0.000210071
0.000192225
0.000171604
0.000148235
0.000130803
0.000137944
9.02581e-05
-2.33541e-05
-2.10832e-06
6.01871e-05
1.7327e-05
-2.14251e-07
-2.39466e-08
1.01092e-11
-4.93638e-05
4.52204e-06
9.04565e-05
0.000179272
0.000240648
0.000249719
0.000193326
7.39391e-05
-9.13293e-05
-0.000276308
-0.000453201
-0.000598821
-0.00069816
-0.000745644
-0.000743216
-0.000692485
-0.000620403
-0.000539216
-0.000404509
-0.000244762
-0.000112287
-6.85596e-06
7.94311e-05
0.000147427
0.000199395
0.000237825
0.000264872
0.0002823
0.000291579
0.000293955
0.000290497
0.000282162
0.000269814
0.000254166
0.000235873
0.000215429
0.000192476
0.000167065
0.000148298
0.000154877
0.000100692
-1.45676e-05
1.12397e-05
6.5316e-05
1.76804e-05
-7.12918e-08
-1.7785e-08
2.04822e-11
-1.18435e-05
1.61484e-05
5.75661e-05
9.0458e-05
9.0421e-05
3.84184e-05
-7.16976e-05
-0.000229928
-0.000413343
-0.000593625
-0.000744936
-0.000848986
-0.000897367
-0.000891441
-0.000829556
-0.000733853
-0.000630981
-0.000483949
-0.000308012
-0.000162296
-4.81179e-05
4.69066e-05
0.000123738
0.000184819
0.000232475
0.000268515
0.000294376
0.00031128
0.000320296
0.000322393
0.00031846
0.000309368
0.000295978
0.000279051
0.000259328
0.000237421
0.000213045
0.000186364
0.000167039
0.000173822
0.000113023
-3.27681e-06
2.80464e-05
7.24102e-05
1.85851e-05
1.58842e-07
-8.77968e-09
3.70094e-11
-7.46881e-07
8.44878e-06
1.61496e-05
4.52491e-06
-4.62364e-05
-0.000148927
-0.000302072
-0.000488586
-0.000681275
-0.000851493
-0.000976453
-0.00104277
-0.00104817
-0.000996018
-0.000885449
-0.000760069
-0.000618409
-0.000418442
-0.000245513
-0.000120058
-1.42962e-05
7.26916e-05
0.000143597
0.000201032
0.000246841
0.000282311
0.000308463
0.000326168
0.000336222
0.000339375
0.000336354
0.000327921
0.000314889
0.000298004
0.000278033
0.000255672
0.000230725
0.000203501
0.000184263
0.000191785
0.000125204
8.59891e-06
4.54413e-05
8.02246e-05
1.98663e-05
4.32852e-07
1.35441e-09
5.63746e-11
9.36274e-08
-7.46247e-07
-1.18416e-05
-4.93601e-05
-0.000130354
-0.000263167
-0.000441065
-0.000642565
-0.000838358
-0.00100029
-0.00110789
-0.00115099
-0.00113135
-0.00104836
-0.000916643
-0.000769923
-0.000585571
-0.000382055
-0.00022265
-0.000102228
-1.33024e-06
8.17091e-05
0.000150026
0.000206035
0.000251293
0.000286859
0.000313556
0.000332092
0.00034312
0.000347273
0.000345183
0.000337539
0.000325114
0.000308622
0.000288826
0.00026648
0.000241453
0.000214075
0.000194872
0.000203005
0.000133486
1.74162e-05
5.73155e-05
8.536e-05
2.07761e-05
6.33856e-07
8.72454e-09
7.06194e-11
)
;

boundaryField
{
    inlet
    {
        type            cyclic;
    }
    outlet
    {
        type            cyclic;
    }
    walls
    {
        type            calculated;
        value           nonuniform List<scalar> 
96
(
8.83335e-16
1.01115e-14
8.37841e-14
3.72742e-13
9.95607e-13
1.68072e-12
1.25864e-12