/*--------------------------------*- C++ -*----------------------------------*\
| =========                 |                                                 |
| \\      /  F ield         | OpenFOAM: The Open Source CFD Toolbox           |
|  \\    /   O peration     | Version:  2506                                  |
|   \\  /    A nd           | Website:  www.openfoam.com                      |
|    \\/     M anipulation  |                                                 |
\*---------------------------------------------------------------------------*/
FoamFile
{
    version     2.0;
    format      ascii;
    arch        "LSB;label=32;scalar=64";
    class       volScalarField;
    location    "2137";
    object      I4;
}
// * * * * * * * * * * * * * * * * * * * * * * * * * * * * * * * * * * * * * //

dimensions      [0 0 0 0 0 0 0];

internalField   nonuniform List<scalar> 
2304
(
-2.35508e-11
-1.8792e-11
-1.23371e-11
-6.82575e-12
-3.36893e-12
-1.55107e-12
-6.62086e-13
-2.06357e-13
-1.6448e-15
-1.76243e-14
-2.6747e-13
-7.30765e-13
-1.36256e-12
-2.0912e-12
-2.84675e-12
-3.54816e-12
-4.1115e-12
-4.47623e-12
-4.57655e-12
-4.35093e-12
-3.73319e-12
-2.65776e-12
-1.08702e-12
9.72848e-13
3.55563e-12
6.59859e-12
9.9835e-12
1.35013e-11
1.69231e-11
2.01027e-11
2.31858e-11
2.70067e-11
3.05629e-11
3.31889e-11
3.4347e-11
3.34564e-11
3.00253e-11
2.40012e-11
1.61427e-11
8.07256e-12
1.73693e-12
-1.34416e-12
-1.70554e-12
-1.00963e-12
-3.78096e-13
-8.41657e-14
-8.4134e-15
-2.62845e-16
-2.90928e-09
-4.51757e-10
2.9264e-09
5.92874e-09
7.98251e-09
9.22032e-09
9.95761e-09
1.04206e-08
1.07049e-08
1.08341e-08
1.08137e-08
1.06611e-08
1.0405e-08
1.00835e-08
9.73303e-09
9.3925e-09
9.09863e-09
8.87797e-09
8.75749e-09
8.76372e-09
8.9258e-09
9.27333e-09
9.82459e-09
1.05795e-08
1.15411e-08
1.26737e-08
1.39123e-08
1.51557e-08
1.62936e-08
1.72479e-08
1.80766e-08
1.90205e-08
1.97305e-08
1.99347e-08
1.94351e-08
1.80385e-08
1.56141e-08
1.22254e-08
8.25275e-09
4.38152e-09
1.37598e-09
-1.97841e-10
-5.58585e-10
-3.84296e-10
-1.62862e-10
-4.25188e-11
-3.67703e-12
-8.41361e-15
-2.11294e-07
-1.44294e-07
-5.29515e-08
2.37716e-08
7.14236e-08
9.58712e-08
1.07558e-07
1.13535e-07
1.16699e-07
1.17646e-07
1.16359e-07
1.13132e-07
1.08622e-07
1.03806e-07
9.97099e-08
9.75059e-08
9.83517e-08
1.03099e-07
1.12556e-07
1.27451e-07
1.48524e-07
1.76531e-07
2.11894e-07
2.54641e-07
3.04962e-07
3.61832e-07
4.23339e-07
4.86374e-07
5.47214e-07
6.02437e-07
6.52045e-07
7.02122e-07
7.41301e-07
7.60447e-07
7.5251e-07
7.10377e-07
6.28873e-07
5.09137e-07
3.6292e-07
2.12918e-07
8.59551e-08
9.81379e-09
-1.57998e-08
-1.43799e-08
-6.60854e-09
-1.30623e-09
-4.25189e-11
-8.41667e-14
-6.92523e-06
-6.62197e-06
-6.19491e-06
-5.8933e-06
-5.77554e-06
-5.78229e-06
-5.83706e-06
-5.89363e-06
-5.9358e-06
-5.96342e-06
-5.98033e-06
-5.98801e-06
-5.98493e-06
-5.96675e-06
-5.92789e-06
-5.86076e-06
-5.75676e-06
-5.60854e-06
-5.40837e-06
-5.14889e-06
-4.82298e-06
-4.4239e-06
-3.9472e-06
-3.39141e-06
-2.75314e-06
-2.03648e-06
-1.25075e-06
-4.13792e-07
4.49795e-07
1.30742e-06
2.13102e-06
2.93179e-06
3.6506e-06
4.2361e-06
4.63888e-06
4.80039e-06
4.66543e-06
4.20513e-06
3.43979e-06
2.44571e-06
1.32033e-06
4.16778e-07
-3.49603e-08
-1.19741e-07
-5.31471e-08
-6.60855e-09
-1.62862e-10
-3.78098e-13
-2.8452e-05
-2.67405e-05
-2.41358e-05
-2.17712e-05
-2.00617e-05
-1.89387e-05
-1.819e-05
-1.76562e-05
-1.72583e-05
-1.69679e-05
-1.67708e-05
-1.66473e-05
-1.65703e-05
-1.65068e-05
-1.64247e-05
-1.62903e-05
-1.60719e-05
-1.57468e-05
-1.52932e-05
-1.46913e-05
-1.39212e-05
-1.29597e-05
-1.17766e-05
-1.03527e-05
-8.69731e-06
-6.82971e-06
-4.77946e-06
-2.59921e-06
-3.54179e-07
1.85993e-06
3.97264e-06
6.53589e-06
8.84735e-06
1.07144e-05
1.20577e-05
1.28309e-05
1.30629e-05
1.28506e-05
1.22542e-05
1.1068e-05
8.03727e-06
3.9887e-06
9.82599e-07
-1.38008e-07
-1.19741e-07
-1.438e-08
-3.84297e-10
-1.00963e-12
-1.91063e-05
-1.51481e-05
-9.34928e-06
-3.74682e-06
7.02846e-07
3.96275e-06
6.339e-06
8.10913e-06
9.44241e-06
1.04272e-05
1.11239e-05
1.15976e-05
1.19218e-05
1.21757e-05
1.24297e-05
1.27489e-05
1.31854e-05
1.37655e-05
1.45077e-05
1.54276e-05
1.65476e-05
1.79089e-05
1.95826e-05
2.16355e-05
2.40727e-05
2.68847e-05
3.00535e-05
3.35259e-05
3.72551e-05
4.11403e-05
4.48458e-05
4.789e-05
5.05205e-05
5.27417e-05
5.44634e-05
5.55115e-05
5.55316e-05
5.39334e-05
5.01285e-05
4.44359e-05
3.30404e-05
1.8519e-05
6.3246e-06
9.82598e-07
-3.49606e-08
-1.57998e-08
-5.58586e-10
-1.70555e-12
-5.80727e-06
-2.86788e-06
1.09135e-06
4.8553e-06
7.78441e-06
9.92056e-06
1.15361e-05
1.28479e-05
1.39743e-05
1.49661e-05
1.58548e-05
1.66836e-05
1.75079e-05
1.83912e-05
1.93868e-05
2.0543e-05
2.18983e-05
2.34694e-05
2.52824e-05
2.73835e-05
2.98516e-05
3.28003e-05
3.63656e-05
4.07057e-05
4.59999e-05
5.2388e-05
6.00196e-05
6.90128e-05
7.95152e-05
9.15635e-05
0.000104626
0.000113226
0.00012134
0.000129625
0.000137439
0.000143662
0.00014677
0.000145091
0.000137275
0.000125328
9.61335e-05
5.16063e-05
1.8519e-05
3.9887e-06
4.16777e-07
9.81373e-09
-1.97842e-10
-1.34417e-12
-4.44962e-05
-4.17352e-05
-3.76746e-05
-3.3564e-05
-3.00858e-05
-2.7298e-05
-2.49974e-05
-2.30002e-05
-2.11983e-05
-1.95399e-05
-1.79857e-05
-1.64799e-05
-1.49522e-05
-1.3326e-05
-1.15429e-05
-9.55368e-06
-7.31794e-06
-4.8147e-06
-1.99476e-06
1.23305e-06
5.01133e-06
9.53325e-06
1.50261e-05
2.17268e-05
2.99325e-05
3.98831e-05
5.18275e-05
6.59176e-05
8.22492e-05
0.000100597
0.000120464
0.000140405
0.000159504
0.000176122
0.000187871
0.000192615
0.000189777
0.000181168
0.000170119
0.000167657
0.000163505
9.61335e-05
3.30404e-05
8.03726e-06
1.32033e-06
8.5955e-08
1.37597e-09
1.73692e-12
-6.76657e-05
-6.39261e-05
-5.79389e-05
-5.1624e-05
-4.59799e-05
-4.12266e-05
-3.71974e-05
-3.36907e-05
-3.05646e-05
-2.77338e-05
-2.51252e-05
-2.26459e-05
-2.01882e-05
-1.76414e-05
-1.49268e-05
-1.19793e-05
-8.73981e-06
-5.1657e-06
-1.16211e-06
3.429e-06
8.82768e-06
1.53285e-05
2.32677e-05
3.29807e-05
4.48462e-05
5.91352e-05
7.60837e-05
9.56387e-05
0.000117502
0.000140693
0.000163642
0.000186133
0.000203926
0.000213882
0.000213942
0.000204179
0.000187796
0.00017033
0.000156495
0.000153616
0.000167657
0.000125328
4.44359e-05
1.10679e-05
2.44571e-06
2.12918e-07
4.38152e-09
8.07254e-12
-6.49576e-05
-6.14214e-05
-5.56799e-05
-4.94328e-05
-4.36007e-05
-3.84316e-05
-3.38097e-05
-2.95762e-05
-2.56194e-05
-2.18734e-05
-1.82759e-05
-1.47355e-05
-1.11417e-05
-7.3804e-06
-3.37809e-06
9.31622e-07
5.63151e-06
1.08081e-05
1.66443e-05
2.34148e-05
3.14722e-05
4.12494e-05
5.3193e-05
6.77155e-05
8.52498e-05
0.000105956
0.000129837
0.000156244
0.000184077
0.000211167
0.00023462
0.000250961
0.000256616
0.000249884
0.000231826
0.000206832
0.000181913
0.000163578
0.000154632
0.000156495
0.00017012
0.000137275
5.01284e-05
1.22542e-05
3.43979e-06
3.6292e-07
8.25274e-09
1.61426e-11
-7.13594e-05
-6.78347e-05
-6.21218e-05
-5.56887e-05
-4.94118e-05
-4.35845e-05
-3.81423e-05
-3.29606e-05
-2.79478e-05
-2.30518e-05
-1.82196e-05
-1.33608e-05
-8.36108e-06
-3.09779e-06
2.50416e-06
8.53086e-06
1.51214e-05
2.24392e-05
3.07884e-05
4.05863e-05
5.23249e-05
6.65381e-05
8.37229e-05
0.000104231
0.000128348
0.000155768
0.000185847
0.000216794
0.000246362
0.000271095
0.000287231
0.000291165
0.000280708
0.000257322
0.000226328
0.000195586
0.000173106
0.000163423
0.000163578
0.00017033
0.000181168
0.000145091
5.39333e-05
1.28506e-05
4.20513e-06
5.09136e-07
1.22253e-08
2.40012e-11
-8.04851e-05
-7.69092e-05
-7.10155e-05
-6.4159e-05
-5.72011e-05
-5.04955e-05
-4.40286e-05
-3.76978e-05
-3.14175e-05
-2.514e-05
-1.8818e-05
-1.23612e-05
-5.64954e-06
1.45647e-06
9.04548e-06
1.72495e-05
2.63054e-05
3.64846e-05
4.82419e-05
6.21484e-05
7.87892e-05
9.87212e-05
0.000122344
0.000149678
0.000180535
0.000213617
0.000247203
0.000277949
0.000302527
0.00031697
0.000318167
0.000304323
0.000276885
0.000241475
0.000206748
0.000181185
0.000169911
0.000173106
0.000181913
0.000187796
0.000189777
0.00014677
5.55316e-05
1.30629e-05
4.66543e-06
6.28872e-07
1.56141e-08
3.00252e-11
-8.88275e-05
-8.52249e-05
-7.91407e-05
-7.181e-05
-6.40751e-05
-5.63682e-05
-4.87439e-05
-4.11223e-05
-3.34131e-05
-2.5563e-05
-1.75257e-05
-9.20834e-06
-4.805e-07
8.82779e-06
1.88356e-05
2.9753e-05
4.19581e-05
5.58487e-05
7.20395e-05
9.12117e-05
0.000113938
0.000140632
0.000171321
0.000205277
0.000241396
0.000276858
0.000308685
0.000332451
0.000345576
0.000342719
0.000323838
0.000291517
0.000253172
0.000216048
0.000188715
0.00017698
0.000181185
0.000195586
0.000206832
0.000204179
0.000192615
0.000143662
5.55114e-05
1.28309e-05
4.80038e-06
7.10376e-07
1.80385e-08
3.34563e-11
-9.62761e-05
-9.26783e-05
-8.64432e-05
-7.86248e-05
-7.00236e-05
-6.11701e-05
-5.22192e-05
-4.31298e-05
-3.38025e-05
-2.4167e-05
-1.41692e-05
-3.70459e-06
7.37973e-06
1.9308e-05
3.22513e-05
4.65313e-05
6.27047e-05
8.1283e-05
0.000102996
0.000128518
0.000158199
0.000192027
0.000229245
0.000267884
0.000305598
0.000338634
0.000364354
0.000374092
0.000365808
0.000341656
0.000305037
0.000261588
0.000220496
0.000192735
0.00018235
0.000188715
0.000206748
0.000226329
0.000231826
0.000213942
0.000187871
0.000137439
5.44634e-05
1.20577e-05
4.63888e-06
7.5251e-07
1.94351e-08
3.4347e-11
-0.000102875
-9.93355e-05
-9.30174e-05
-8.47223e-05
-7.5169e-05
-6.49959e-05
-5.44983e-05
-4.37064e-05
-3.25184e-05
-2.08379e-05
-8.59077e-06
4.35537e-06
1.81993e-05
3.3255e-05
4.97625e-05
6.81777e-05
8.92615e-05
0.000113552
0.000141759
0.00017434
0.000211063
0.000251065
0.000292367
0.000331816
0.00036816
0.000391437
0.000397183
0.000384804
0.000347563
0.000301835
0.000255787
0.000219822
0.000193613
0.00018288
0.000192735
0.000216048
0.000241476
0.000257322
0.000249884
0.000213882
0.000176122
0.000129625
5.27416e-05
1.07144e-05
4.2361e-06
7.60446e-07
1.99347e-08
3.31888e-11
-0.000108372
-0.000104964
-9.866e-05
-8.99385e-05
-7.93793e-05
-6.77171e-05
-5.54223e-05
-4.26409e-05
-2.92886e-05
-1.52409e-05
-3.89946e-07
1.54468e-05
3.25468e-05
5.13608e-05
7.21891e-05
9.56121e-05
0.000122572
0.000153437
0.000188632
0.000228059
0.000270426
0.00031385
0.00035691
0.000392604
0.000412835
0.000413284
0.000382688
0.000338949
0.000286617
0.000233875
0.000190561
0.000167503
0.000173526
0.000193613
0.000220496
0.000253172
0.000276885
0.000280708
0.000256616
0.000203926
0.000159504
0.00012134
5.05205e-05
8.84736e-06
3.6506e-06
7.413e-07
1.97305e-08
3.05629e-11
-0.000112514
-0.000109308
-0.000103123
-9.40546e-05
-8.24745e-05
-6.91753e-05
-5.48181e-05
-3.97111e-05
-2.3819e-05
-6.99144e-06
1.09228e-05
3.01753e-05
5.11528e-05
7.44841e-05
0.000100483
0.000129766
0.000163302
0.000201005
0.00024259
0.000287144
0.000333399
0.000378037
0.000411497
0.000428942
0.000411849
0.000375948
0.00032582
0.000267092
0.000210349
0.000164162
0.000139058
0.000138018
0.000167503
0.000219822
0.000261589
0.000291517
0.000304323
0.000291165
0.000250961
0.000186133
0.000140405
0.000113226
4.789e-05
6.5359e-06
2.9318e-06
7.02122e-07
1.90205e-08
2.70066e-11
-0.000115062
-0.000112119
-0.000106154
-9.68332e-05
-8.42518e-05
-6.91966e-05
-5.25063e-05
-3.46893e-05
-1.57902e-05
4.35703e-06
2.59276e-05
4.92514e-05
7.48231e-05
0.000103433
0.000135361
0.000171023
0.000211033
0.000254781
0.000302308
0.000351544
0.000394477
0.0004253
0.000428867
0.000405404
0.000364039
0.000308336
0.000247139
0.000187061
0.000138015
0.000109574
0.000109872
0.000139059
0.000190561
0.000255788
0.000305037
0.000323838
0.000318167
0.000287231
0.00023462
0.000163642
0.000120464
0.000104626
4.48458e-05
3.97266e-06
2.13103e-06
6.52045e-07
1.80766e-08
2.31858e-11
-0.000115759
-0.000113126
-0.000107465
-9.7986e-05
-8.44431e-05
-6.75353e-05
-4.8234e-05
-2.72616e-05
-4.76767e-06
1.9355e-05
4.5238e-05
7.33163e-05
0.000104132
0.00013848
0.000176626
0.000218749
0.00026704
0.000317327
0.000365416
0.000406282
0.000428583
0.000420789
0.000393738
0.000347865
0.000290669
0.000226773
0.000164039
0.00011221
8.18751e-05
8.01229e-05
0.000109574
0.000164162
0.000233875
0.000301835
0.000341656
0.000342719
0.00031697
0.000271095
0.000211167
0.000140693
0.000100597
9.15635e-05
4.11403e-05
1.85995e-06
1.30743e-06
6.02437e-07
1.72479e-08
2.01027e-11
-0.000114374
-0.000112075
-0.000106766
-9.7194e-05
-8.27187e-05
-6.3857e-05
-4.16303e-05
-1.69557e-05
9.81997e-06
3.85283e-05
6.9224e-05
0.000102577
0.000139488
0.00018206
0.000228716
0.000278396
0.000328196
0.000375327
0.000408606
0.000417597
0.000407934
0.000377676
0.000330786
0.000272076
0.000206207
0.000141537
8.85847e-05
5.67195e-05
5.36078e-05
8.18752e-05
0.000138016
0.000210349
0.000286618
0.000347563
0.000365808
0.000345576
0.000302527
0.000246362
0.000184077
0.000117502
8.22493e-05
7.95153e-05
3.72551e-05
-3.54152e-07
4.49808e-07
5.47215e-07
1.62936e-08
1.69231e-11
-0.000110698
-0.000108724
-0.000103761
-9.41012e-05
-7.86701e-05
-5.76989e-05
-3.21299e-05
-3.09285e-06
2.85687e-05
6.23065e-05
9.9846e-05
0.000141559
0.000186819
0.000234975
0.000285582
0.000335988
0.000371475
0.000395338
0.000403239
0.000391436
0.000360134
0.000313091
0.000252659
0.000185454
0.000120318
6.66662e-05
3.40883e-05
2.97213e-05
5.67196e-05
0.00011221
0.000187061
0.000267092
0.000338949
0.000384804
0.000374092
0.000332452
0.000277949
0.000216794
0.000156244
9.56388e-05
6.59177e-05
6.90129e-05
3.35259e-05
-2.59918e-06
-4.13777e-07
4.86375e-07
1.51557e-08
1.35014e-11
-0.000104519
-0.000102822
-9.81264e-05
-8.82918e-05
-7.17778e-05
-4.84087e-05
-1.8915e-05
1.51032e-05
5.21031e-05
9.4736e-05
0.000139563
0.000187366
0.000237254
0.000281749
0.000323445
0.000358065
0.000380516
0.00038666
0.000374105
0.000343306
0.000294872
0.000233158
0.00016528
0.000100029
4.64989e-05
1.3584e-05
8.39975e-06
3.40884e-05
8.85848e-05
0.000164039
0.000247139
0.00032582
0.000382688
0.000397183
0.000364354
0.000308685
0.000247203
0.000185847
0.000129837
7.60838e-05
5.18276e-05
6.00197e-05
3.00535e-05
-4.77943e-06
-1.25073e-06
4.2334e-07
1.39123e-08
9.98353e-12
-9.56199e-05
-9.41044e-05
-8.95058e-05
-7.92763e-05
-6.13759e-05
-3.50893e-05
-1.02705e-06
3.83919e-05
8.50791e-05
0.000133387
0.000179505
0.000224489
0.000269242
0.000310318
0.000343935
0.000364851
0.000371055
0.000358327
0.000326045
0.000275999
0.000213444
0.000145725
8.07747e-05
2.76839e-05
-5.09036e-06
-1.08734e-05
1.35841e-05
6.66664e-05
0.000141537
0.000226773
0.000308336
0.000375948
0.000413284
0.000391438
0.000338634
0.000276858
0.000213617
0.000155768
0.000105956
5.91352e-05
3.98832e-05
5.23881e-05
2.68848e-05
-6.82967e-06
-2.03646e-06
3.61833e-07
1.26737e-08
6.59862e-12
-8.37646e-05
-8.22806e-05
-7.74927e-05
-6.64664e-05
-4.65981e-05
-1.66532e-05
2.24098e-05
7.08165e-05
0.000122835
0.000166057
0.000210853
0.000255402
0.000296058
0.000329808
0.000350986
0.000355814
0.000341312
0.000307147
0.000256468
0.00019412
0.000126691
6.25077e-05
1.00871e-05
-2.2332e-05
-2.84368e-05
-5.09025e-06
4.64991e-05
0.000120318
0.000206207
0.000290669
0.000364039
0.000411849
0.000412835
0.00036816
0.000305598
0.000241396
0.000180535
0.000128348
8.52498e-05
4.48463e-05
2.99325e-05
4.59999e-05
2.40727e-05
-8.69728e-06
-2.75312e-06
3.04964e-07
1.15411e-08
3.55567e-12
-6.86783e-05
-6.70109e-05
-6.16069e-05
-4.91437e-05
-2.64151e-05
7.85338e-06
5.37759e-05
0.000108429
0.000152004
0.000195408
0.000240024
0.000281395
0.00031427
0.00033401
0.000336984
0.000321369
0.000287438
0.000236903
0.000174941
0.000108322
4.50102e-05
-6.47718e-06
-3.83958e-05
-4.46818e-05
-2.23319e-05
2.76841e-05
0.000100029
0.000185454
0.000272076
0.000347865
0.000405404
0.000428942
0.000392604
0.000331816
0.000267884
0.000205277
0.000149678
0.000104231
6.77155e-05
3.29807e-05
2.17268e-05
4.07058e-05
2.16355e-05
-1.03527e-05
-3.39139e-06
2.54642e-07
1.05795e-08
9.72878e-13
-5.00084e-05
-4.78657e-05
-4.12467e-05
-2.64781e-05
-5.62109e-08
3.84551e-05
9.26105e-05
0.000138466
0.00017904
0.000222733
0.000262578
0.000294028
0.000312986
0.000316116
0.000300672
0.0002668
0.000217059
0.000155898
9.03044e-05
2.81865e-05
-2.22736e-05
-5.35253e-05
-5.98674e-05
-3.83957e-05
1.00873e-05
8.07749e-05
0.00016528
0.000252659
0.000330786
0.000393738
0.000428867
0.000411497
0.000356909
0.000292366
0.000229245
0.000171321
0.000122344
8.37229e-05
5.3193e-05
2.32677e-05
1.50261e-05
3.63657e-05
1.95826e-05
-1.17765e-05
-3.94719e-06
2.11895e-07
9.82459e-09
-1.08698e-12
-2.72358e-05
-2.42303e-05
-1.56359e-05
2.28382e-06
3.25526e-05
7.99232e-05
0.000128166
0.000163911
0.000203855
0.000241075
0.000271445
0.000290137
0.000293156
0.000278335
0.000245222
0.000196371
0.000136603
7.23919e-05
1.16774e-05
-3.75318e-05
-6.80066e-05
-7.42558e-05
-5.35252e-05
-6.47698e-06
6.25079e-05
0.000145725
0.000233158
0.000313091
0.000377675
0.000420788
0.0004253
0.000378037
0.00031385
0.000251065
0.000192027
0.000140632
9.87211e-05
6.6538e-05
4.12494e-05
1.53285e-05
9.53329e-06
3.28004e-05
1.79088e-05
-1.29596e-05
-4.42388e-06
1.76532e-07
9.27333e-09
-2.65775e-12
4.44139e-07
4.76575e-06
1.60387e-05
3.74208e-05
7.47374e-05
0.000124356
0.000153582
0.000186377
0.000219329
0.000247491
0.000265239
0.000268243
0.000253921
0.000222041
0.000174638
0.000116475
5.41189e-05
-4.88124e-06
-5.26411e-05
-8.21505e-05
-8.81584e-05
-6.80065e-05
-2.22734e-05
4.50104e-05
0.000126691
0.000213444
0.000294872
0.000360134
0.000407933
0.000428583
0.000394477
0.000333399
0.000270426
0.000211062
0.000158199
0.000113937
7.87891e-05
5.23248e-05
3.14721e-05
8.82764e-06
5.01135e-06
2.98517e-05
1.65476e-05
-1.39212e-05
-4.82297e-06
1.48525e-07
8.92579e-09
-3.73317e-12
3.40767e-05
4.00192e-05
5.4093e-05
8.15752e-05
0.000123264
0.000151791
0.000174538
0.000200741
0.000224063
0.000239404
0.000241602
0.000227644
0.000196877
0.000151285
9.51622e-05
3.49095e-05
-2.20195e-05
-6.80602e-05
-9.6387e-05
-0.000101935
-8.21504e-05
-3.75316e-05
2.81867e-05
0.000108322
0.00019412
0.000275999
0.000343306
0.000391435
0.000417596
0.000406281
0.000351543
0.000287144
0.000228058
0.00017434
0.000128517
9.12114e-05
6.21482e-05
4.05862e-05
2.34147e-05
3.42893e-06
1.23305e-06
2.73835e-05
1.54275e-05
-1.46913e-05
-5.14887e-06
1.27451e-07
8.7637e-09
-4.35095e-12
7.4218e-05
8.18352e-05
0.000102665
0.000134851
0.000160292
0.000172134
0.000189519
0.000204744
0.000214882
0.000214546
0.000199963
0.000169945
0.00012598
7.20971e-05
1.4249e-05
-4.03621e-05
-8.43771e-05
-0.000111245
-0.00011607
-9.6387e-05
-5.26409e-05
1.16775e-05
9.03045e-05
0.000174941
0.000256468
0.000326045
0.000374105
0.000403238
0.000408605
0.000365415
0.000302308
0.000242589
0.000188631
0.000141758
0.000102995
7.20392e-05
4.82417e-05
3.07883e-05
1.66442e-05
-1.16222e-06
-1.99478e-06
2.52824e-05
1.45076e-05
-1.52932e-05
-5.40835e-06
1.12557e-07
8.75746e-09
-4.57655e-12
0.000127353
0.000139481
0.000161326
0.000179761
0.000183072
0.000188956
0.000193653
0.000195338
0.000189546
0.000172339
0.000141833
9.8893e-05
4.69724e-05
-8.40096e-06
-6.04859e-05
-0.000102237
-0.00012735
-0.000131144
-0.000111245
-6.806e-05
-4.8811e-06
7.2392e-05
0.000155898
0.000236902
0.000307146
0.000358326
0.000386659
0.000395337
0.000375326
0.000317326
0.00025478
0.000201004
0.000153436
0.000113551
8.12826e-05
5.58483e-05
3.64843e-05
2.2439e-05
1.08079e-05
-5.16583e-06
-4.81474e-06
2.34694e-05
1.37654e-05
-1.57468e-05
-5.60852e-06
1.03099e-07
8.87793e-09
-4.4763e-12
0.000195181
0.000206131
0.000210333
0.000206796
0.000201732
0.000194823
0.000185105
0.000170392
0.000147432
0.000114169
7.07813e-05
2.00131e-05
-3.32734e-05
-8.28734e-05
-0.000122221
-0.000145348
-0.000147805
-0.00012735
-8.4377e-05
-2.20194e-05
5.41189e-05
0.000136603
0.000217059
0.000287437
0.000341311
0.000371055
0.000380515
0.000371474
0.000328195
0.000267039
0.000211032
0.000163301
0.000122572
8.9261e-05
6.27042e-05
4.19577e-05
2.6305e-05
1.51211e-05
5.6313e-06
-8.73998e-06
-7.318e-06
2.18983e-05
1.31853e-05
-1.60719e-05
-5.75674e-06
9.83519e-08
9.09857e-09
-4.11153e-12
0.000256634
0.000253357
0.000244619
0.000230825
0.000212583
0.000188745
0.000161613
0.00012915
8.97943e-05
4.34586e-05
-7.83703e-06
-6.00231e-05
-0.000107636
-0.000144713
-0.000165769
-0.000166669
-0.000145348
-0.000102237
-4.0362e-05
3.49095e-05
0.000116475
0.000196371
0.0002668
0.000321368
0.000355813
0.00036485
0.000358064
0.000335987
0.000278395
0.000218748
0.000171022
0.000129766
9.56114e-05
6.8177e-05
4.65308e-05
2.97525e-05
1.72491e-05
8.53056e-06
9.31378e-07
-1.19795e-05
-9.55376e-06
2.05429e-05
1.27487e-05
-1.62903e-05
-5.86074e-06
9.75057e-08
9.39243e-09
-3.54828e-12
0.000305567
0.000295167
0.000276522
0.000247738
0.000209916
0.000167699
0.000122076
7.27177e-05
1.99495e-05
-3.45484e-05
-8.74763e-05
-0.000134231
-0.00016964
-0.000188842
-0.000188152
-0.000165769
-0.00012222
-6.04858e-05
1.4249e-05
9.51621e-05
0.000174638
0.000245222
0.000300671
0.000336983
0.000350985
0.000343934
0.000323444
0.000285581
0.000228715
0.000176625
0.00013536
0.000100483
7.21884e-05
4.97618e-05
3.22507e-05
1.88351e-05
9.04505e-06
2.50381e-06
-3.37838e-06
-1.4927e-05
-1.15431e-05
1.93867e-05
1.24295e-05
-1.64248e-05
-5.92788e-06
9.97096e-08
9.73295e-09
-2.84682e-12
0.000349458
0.000332001
0.000297142
0.000248548
0.000191772
0.000130575
6.75631e-05
4.39406e-06
-5.68686e-05
-0.000113324
-0.000161183
-0.000196172
-0.000214225
-0.000212253
-0.000188842
-0.000144713
-8.28733e-05
-8.40091e-06
7.2097e-05
0.000151284
0.00022204
0.000278335
0.000316115
0.000334009
0.000329807
0.000310317
0.000281748
0.000234973
0.000182059
0.000138479
0.000103432
7.44832e-05
5.136e-05
3.32542e-05
1.93074e-05
8.82724e-06
1.45601e-06
-3.09818e-06
-7.38073e-06
-1.76417e-05
-1.33262e-05
1.83912e-05
1.21755e-05
-1.65069e-05
-5.96673e-06
1.03805e-07
1.00834e-08
-2.09134e-12
0.000377107
0.000349386
0.000299121
0.000232721
0.000157158
7.85184e-05
1.47473e-06
-7.04581e-05
-0.000134003
-0.000185807
-0.000222431
-0.000240694
-0.000238254
-0.000214225
-0.00016964
-0.000107636
-3.32732e-05
4.69725e-05
0.00012598
0.000196877
0.00025392
0.000293156
0.000312985
0.000314269
0.000296057
0.000269241
0.000237253
0.000186818
0.000139486
0.000104131
7.48221e-05
5.11518e-05
3.25459e-05
1.81985e-05
7.37905e-06
-4.81094e-07
-5.65005e-06
-8.36151e-06
-1.11421e-05
-2.01885e-05
-1.49524e-05
1.75078e-05
1.19216e-05
-1.65704e-05
-5.98492e-06
1.08621e-07
1.04049e-08
-1.3627e-12
0.000383661
0.000347591
0.000282995
0.00019961
0.000107474
1.52206e-05
-7.05117e-05
-0.000144872
-0.000204116
-0.000245235
-0.000265844
-0.000264409
-0.000240693
-0.000196172
-0.000134231
-6.00227e-05
2.00134e-05
9.88932e-05
0.000169945
0.000227644
0.000268242
0.000290137
0.000294027
0.000281394
0.000255401
0.000224488
0.000187364
0.000141557
0.000102576
7.33151e-05
4.92504e-05
3.01744e-05
1.54459e-05
4.35459e-06
-3.70529e-06
-9.20896e-06
-1.23618e-05
-1.33613e-05
-1.47359e-05
-2.26463e-05
-1.64801e-05
1.66835e-05
1.15973e-05
-1.66474e-05
-5.98799e-06
1.1313e-07
1.06609e-08
-7.31042e-13
0.000369295
0.000325486
0.000248313
0.000151072
4.69324e-05
-5.31091e-05
-0.000140918
-0.000211051
-0.00026005
-0.000285875
-0.000287662
-0.000265843
-0.00022243
-0.000161182
-8.74756e-05
-7.83639e-06
7.07819e-05
0.000141833
0.000199963
0.000241603
0.000265239
0.000271445
0.000262578
0.000240023
0.000210853
0.000179504
0.000139561
9.98444e-05
6.92227e-05
4.52368e-05
2.59265e-05
1.09218e-05
-3.9083e-07
-8.59157e-06
-1.41699e-05
-1.75263e-05
-1.88186e-05
-1.82201e-05
-1.82763e-05
-2.51256e-05
-1.79859e-05
1.58547e-05
1.11236e-05
-1.67708e-05
-5.98032e-06
1.16357e-07
1.08136e-08
-2.67758e-13
0.000333431
0.000283837
0.000197879
9.21099e-05
-1.75531e-05
-0.000118336
-0.000201369
-0.000261349
-0.000295636
-0.000303514
-0.000285875
-0.000245235
-0.000185807
-0.000113323
-3.45474e-05
4.34596e-05
0.00011417
0.00017234
0.000214547
0.000239405
0.000247491
0.000241075
0.000222733
0.000195408
0.000166056
0.000133385
9.47343e-05
6.23053e-05
3.85271e-05
1.93539e-05
4.35601e-06
-6.99236e-06
-1.52417e-05
-2.08386e-05
-2.41677e-05
-2.55636e-05
-2.51405e-05
-2.30523e-05
-2.18738e-05
-2.77342e-05
-1.95401e-05
1.49659e-05
1.04269e-05
-1.6968e-05
-5.96341e-06
1.17643e-07
1.08339e-08
-1.79977e-14
0.000279457
0.000227101
0.000137787
3.0451e-05
-7.71922e-05
-0.000171557
-0.000243805
-0.000289245
-0.000306278
-0.000295636
-0.000260049
-0.000204115
-0.000134002
-5.68673e-05
1.99509e-05
8.97958e-05
0.000147433
0.000189547
0.000214884
0.000224065
0.00021933
0.000203856
0.000179041
0.000152005
0.000122834
8.50777e-05
5.2102e-05
2.85676e-05
9.81891e-06
-4.76866e-06
-1.57911e-05
-2.38199e-05
-2.92894e-05
-3.25191e-05
-3.38032e-05
-3.34137e-05
-3.1418e-05
-2.79482e-05
-2.56198e-05
-3.0565e-05
-2.11985e-05
1.39742e-05
9.44208e-06
-1.72584e-05
-5.9358e-06
1.16695e-07
1.07047e-08
-2.13429e-15
0.000214195
0.000162873
7.66499e-05
-2.46392e-05
-0.000122881
-0.000204685
-0.000261747
-0.000290118
-0.000289245
-0.000261349
-0.00021105
-0.000144871
-7.04569e-05
4.39559e-06
7.27194e-05
0.000129152
0.000170394
0.00019534
0.000204746
0.000200743
0.000186379
0.000163912
0.000138467
0.000108429
7.08157e-05
3.83913e-05
1.51025e-05
-3.0936e-06
-1.69565e-05
-2.72623e-05
-3.46901e-05
-3.97118e-05
-4.26415e-05
-4.3707e-05
-4.31303e-05
-4.11228e-05
-3.76983e-05
-3.2961e-05
-2.95766e-05
-3.36911e-05
-2.30004e-05
1.28477e-05
8.1088e-06
-1.76563e-05
-5.89364e-06
1.1353e-07
1.04203e-08
-2.07151e-13
0.000147028
0.000100701
2.39051e-05
-6.44372e-05
-0.000147264
-0.00021211
-0.000251357
-0.000261747
-0.000243804
-0.000201369
-0.000140917
-7.05107e-05
1.47604e-06
6.75647e-05
0.000122078
0.000161615
0.000185107
0.000193656
0.000189521
0.00017454
0.000153584
0.000128168
9.26109e-05
5.37759e-05
2.241e-05
-1.02708e-06
-1.89152e-05
-3.21302e-05
-4.16307e-05
-4.82345e-05
-5.25068e-05
-5.48186e-05
-5.54228e-05
-5.44988e-05
-5.22196e-05
-4.87443e-05
-4.4029e-05
-3.81427e-05
-3.381e-05
-3.71978e-05
-2.49975e-05
1.15359e-05
6.33865e-06
-1.81901e-05
-5.83707e-06
1.07553e-07
9.95735e-09
-6.62697e-13
8.77267e-05
4.96485e-05
-1.28028e-05
-8.32377e-05
-0.000146694
-0.000191956
-0.00021211
-0.000204686
-0.000171557
-0.000118336
-5.31088e-05
1.52213e-05
7.85195e-05
0.000130576
0.0001677
0.000188747
0.000194825
0.000188959
0.000172136
0.000151794
0.000124357
7.99243e-05
3.84562e-05
7.85435e-06
-1.66524e-05
-3.50886e-05
-4.84081e-05
-5.76986e-05
-6.38568e-05
-6.75353e-05
-6.91967e-05
-6.91755e-05
-6.77173e-05
-6.49961e-05
-6.11704e-05
-5.63684e-05
-5.04957e-05
-4.35847e-05
-3.84319e-05
-4.12269e-05
-2.72982e-05
9.92037e-06
3.9624e-06
-1.89389e-05
-5.78231e-06
9.58651e-08
9.22004e-09
-1.55168e-12
4.34537e-05
1.5415e-05
-3.01394e-05
-8.02163e-05
-0.000122352
-0.000146694
-0.000147265
-0.000122882
-7.7193e-05
-1.75537e-05
4.69321e-05
0.000107474
0.000157159
0.000191773
0.000209917
0.000212585
0.000201734
0.000183073
0.000160294
0.000123266
7.47388e-05
3.2554e-05
-5.48588e-08
-2.64138e-05
-4.65969e-05
-6.13747e-05
-7.17769e-05
-7.86693e-05
-8.27181e-05
-8.44426e-05
-8.42515e-05
-8.24743e-05
-7.93792e-05
-7.5169e-05
-7.00236e-05
-6.40751e-05
-5.72012e-05
-4.94118e-05
-4.36008e-05
-4.59801e-05
-3.00859e-05
7.78432e-06
7.02618e-07
-2.00618e-05
-5.77558e-06
7.14165e-08
7.9822e-09
-3.36973e-12
1.64544e-05
-1.5074e-06
-3.0153e-05
-5.97585e-05
-8.02168e-05
-8.32386e-05
-6.44385e-05
-2.46407e-05
3.04494e-05
9.21084e-05
0.000151071
0.000199609
0.000232721
0.000248548
0.000247738
0.000230825
0.000206796
0.000179761
0.000134852
8.15764e-05
3.74219e-05
2.28497e-06
-2.64769e-05
-4.91424e-05
-6.64651e-05
-7.9275e-05
-8.82906e-05
-9.41e-05
-9.7193e-05
-9.7985e-05
-9.68324e-05
-9.40539e-05
-8.99379e-05
-8.47218e-05
-7.86244e-05
-7.18097e-05
-6.41587e-05
-5.56884e-05
-4.94326e-05
-5.16239e-05
-3.35639e-05
4.85536e-06
-3.74679e-06
-2.17712e-05
-5.89335e-06
2.37629e-08
5.92832e-09
-6.82741e-12
3.94762e-06
-5.38308e-06
-1.91894e-05
-3.01535e-05
-3.01405e-05
-1.28045e-05
2.3903e-05
7.66474e-05
0.000137785
0.000197876
0.000248311
0.000282993
0.000299119
0.000297141
0.000276522
0.000244618
0.000210332
0.000161326
0.000102665
5.40933e-05
1.60391e-05
-1.56354e-05
-4.12461e-05
-6.16062e-05
-7.74918e-05
-8.95049e-05
-9.81254e-05
-0.00010376
-0.000106765
-0.000107464
-0.000106153
-0.000103122
-9.86593e-05
-9.30168e-05
-8.64426e-05
-7.91402e-05
-7.1015e-05
-6.21214e-05
-5.56795e-05
-5.79386e-05
-3.76744e-05
1.09154e-06
-9.34908e-06
-2.41357e-05
-6.1949e-06
-5.29487e-08
2.92654e-09
-1.23365e-11
2.4892e-07
-2.81638e-06
-5.38348e-06
-1.50836e-06
1.54133e-05
4.96462e-05
0.000100698
0.00016287
0.000227098
0.000283833
0.000325483
0.000347588
0.000349383
0.000331999
0.000295165
0.000253356
0.000206131
0.000139481
8.18347e-05
4.00189e-05
4.76549e-06
-2.42305e-05
-4.78657e-05
-6.70107e-05
-8.22802e-05
-9.41038e-05
-0.000102821
-0.000108723
-0.000112074
-0.000113125
-0.000112118
-0.000109307
-0.000104963
-9.93346e-05
-9.26774e-05
-8.5224e-05
-7.69083e-05
-6.78339e-05
-6.14206e-05
-6.39253e-05
-4.17347e-05
-2.86736e-06
-1.51475e-05
-2.67402e-05
-6.62194e-06
-1.44286e-07
-4.51496e-10
-1.87915e-11
-3.12111e-08
2.48708e-07
3.94699e-06
1.64531e-05
4.34517e-05
8.7724e-05
0.000147025
0.000214191
0.000279453
0.000333427
0.000369291
0.000383658
0.000377104
0.000349456
0.000305565
0.000256632
0.000195181
0.000127353
7.4217e-05
3.40758e-05
4.43426e-07
-2.72364e-05
-5.00087e-05
-6.86785e-05
-8.37645e-05
-9.56196e-05
-0.000104519
-0.000110697
-0.000114373
-0.000115758
-0.000115061
-0.000112513
-0.000108371
-0.000102874
-9.62752e-05
-8.88267e-05
-8.04842e-05
-7.13586e-05
-6.49568e-05
-6.7665e-05
-4.44957e-05
-5.80676e-06
-1.91055e-05
-2.84517e-05
-6.9252e-06
-2.11287e-07
-2.90821e-09
-2.35398e-11
)
;

boundaryField
{
    inlet
    {
        type            cyclic;
    }
    outlet
    {
        type            cyclic;
    }
    walls
    {
        type            calculated;
        value           nonuniform List<scalar> 
96
(
-2.94445e-16
-3.37051e-15
-2.7928e-14
-1.24247e-13
-3.31869e-13
-5.60241e-13
-4.19547e-13
6.2408e-13
2.49198e-12
4.27846e-12
5.37646e-12
5.47905e-12
4.65722e-12
3.19163e-12
1.38254e-12
-5.55332e-13
-2.49238e-12
-4.29254e-12
-5.40263e-12
-6.51191e-12
-7.66079e-12
-8.8436e-12
-1.00068e-11
-1.10849e-11
-1.20423e-11
-1.28412e-11
-1.34943e-11
-1.3966e-11
-1.42563e-11
-1.43831e-11
-1.43702e-11
-1.42413e-11
-1.40249e-11
-1.37397e-11
-1.34146e-11
-1.30713e-11
-1.27247e-11
-1.23932e-11
-1.20831e-11
-1.1796e-11
-1.1513e-11
-1.12295e-11
-1.09851e-11
-1.09687e-11
-1.14945e-11
-1.29215e-11
-1.49956e-11
-1.66678e-11
-1.66814e-11
-1.49956e-11