/*--------------------------------*- C++ -*----------------------------------*\
| =========                 |                                                 |
| \\      /  F ield         | OpenFOAM: The Open Source CFD Toolbox           |
|  \\    /   O peration     | Version:  2506                                  |
|   \\  /    A nd           | Website:  www.openfoam.com                      |
|    \\/     M anipulation  |                                                 |
\*---------------------------------------------------------------------------*/
FoamFile
{
    version     2.0;
    format      ascii;
    arch        "LSB;label=32;scalar=64";
    class       volScalarField;
    location    "2137";
    object      I5;
}
// * * * * * * * * * * * * * * * * * * * * * * * * * * * * * * * * * * * * * //

dimensions      [0 0 0 0 0 0 0];

internalField   nonuniform List<scalar> 
2304
(
-1.3125e-10
-1.38326e-10
-1.4914e-10
-1.60289e-10
-1.69839e-10
-1.77343e-10
-1.83042e-10
-1.87278e-10
-1.9029e-10
-1.92238e-10
-1.9325e-10
-1.93464e-10
-1.93021e-10
-1.9205e-10
-1.90653e-10
-1.88909e-10
-1.86866e-10
-1.84559e-10
-1.8202e-10
-1.79283e-10
-1.76387e-10
-1.73358e-10
-1.70189e-10
-1.66828e-10
-1.63164e-10
-1.59035e-10
-1.54242e-10
-1.48579e-10
-1.41859e-10
-1.33956e-10
-1.24828e-10
-1.14496e-10
-1.02988e-10
-9.04426e-11
-7.71394e-11
-6.35052e-11
-5.0106e-11
-3.75978e-11
-2.662e-11
-1.76493e-11
-1.08761e-11
-6.17305e-12
-3.17695e-12
-1.43907e-12
-5.42023e-13
-1.51263e-13
-2.39351e-14
-1.21301e-15
-1.53568e-07
-1.61819e-07
-1.74422e-07
-1.87403e-07
-1.98515e-07
-2.07242e-07
-2.1387e-07
-2.18797e-07
-2.22304e-07
-2.24574e-07
-2.25756e-07
-2.26011e-07
-2.25502e-07
-2.24378e-07
-2.2276e-07
-2.20736e-07
-2.18364e-07
-2.15682e-07
-2.12726e-07
-2.09535e-07
-2.06156e-07
-2.02619e-07
-1.98921e-07
-1.94978e-07
-1.90677e-07
-1.85841e-07
-1.80246e-07
-1.73651e-07
-1.65841e-07
-1.56664e-07
-1.46069e-07
-1.34086e-07
-1.20745e-07
-1.06203e-07
-9.07754e-08
-7.49429e-08
-5.93413e-08
-4.47151e-08
-3.18058e-08
-2.11887e-08
-1.31247e-08
-7.50028e-09
-3.9119e-09
-1.82405e-09
-7.29233e-10
-2.18649e-10
-2.11184e-11
-2.39351e-14
-1.08991e-05
-1.1415e-05
-1.21984e-05
-1.30017e-05
-1.36887e-05
-1.42291e-05
-1.46399e-05
-1.49454e-05
-1.51629e-05
-1.5304e-05
-1.53785e-05
-1.53964e-05
-1.53675e-05
-1.53009e-05
-1.52036e-05
-1.50805e-05
-1.49349e-05
-1.47684e-05
-1.45829e-05
-1.43802e-05
-1.41627e-05
-1.39321e-05
-1.3688e-05
-1.34331e-05
-1.31563e-05
-1.28453e-05
-1.2486e-05
-1.20631e-05
-1.15622e-05
-1.09722e-05
-1.02879e-05
-9.5098e-06
-8.63772e-06
-7.67933e-06
-6.65192e-06
-5.58271e-06
-4.50942e-06
-3.47892e-06
-2.54216e-06
-1.74491e-06
-1.11677e-06
-6.6337e-07
-3.6208e-07
-1.75959e-07
-6.67989e-08
-1.13936e-08
-2.18649e-10
-1.51263e-13
-0.000139372
-0.00014422
-0.000151478
-0.000158812
-0.000165014
-0.000169849
-0.000173498
-0.000176192
-0.000178099
-0.000179334
-0.00017999
-0.000180158
-0.000179925
-0.000179367
-0.000178543
-0.000177495
-0.000176248
-0.000174814
-0.000173199
-0.000171415
-0.000169472
-0.000167374
-0.000165116
-0.000162752
-0.000160149
-0.000157194
-0.000153756
-0.000149687
-0.000144833
-0.000139056
-0.000132254
-0.000124376
-0.00011537
-0.000105252
-9.41073e-05
-8.21083e-05
-6.95263e-05
-5.67491e-05
-4.42791e-05
-3.26968e-05
-2.25797e-05
-1.4375e-05
-8.144e-06
-3.65297e-06
-9.22632e-07
-6.67989e-08
-7.29232e-10
-5.42022e-13
-0.000529385
-0.000540118
-0.000555989
-0.000571814
-0.000585055
-0.000595274
-0.000602898
-0.000608456
-0.000612347
-0.000614848
-0.000616179
-0.000616536
-0.000616104
-0.00061504
-0.000613469
-0.000611482
-0.000609131
-0.000606437
-0.000603402
-0.000600013
-0.000596245
-0.000592056
-0.000587421
-0.000582432
-0.00057675
-0.00057011
-0.000562214
-0.000552709
-0.000541214
-0.000527325
-0.00051064
-0.00049069
-0.000467375
-0.000440617
-0.000410413
-0.000376848
-0.00034006
-0.000300193
-0.000257349
-0.000211584
-0.000162974
-0.000112469
-6.29692e-05
-2.28325e-05
-3.65297e-06
-1.75959e-07
-1.82405e-09
-1.43907e-12
-0.000941618
-0.000951093
-0.000965312
-0.000979791
-0.000992173
-0.00100186
-0.00100909
-0.00101433
-0.00101798
-0.00102034
-0.00102166
-0.00102216
-0.00102201
-0.00102138
-0.00102042
-0.00101924
-0.00101791
-0.00101645
-0.00101482
-0.00101292
-0.0010106
-0.00100769
-0.00100415
-0.000999914
-0.000994606
-0.000987947
-0.00097966
-0.000969426
-0.000956904
-0.000941728
-0.00092361
-0.000902282
-0.000877593
-0.00084972
-0.000818997
-0.000785757
-0.00074995
-0.000710429
-0.000663832
-0.000602898
-0.000513485
-0.000377989
-0.000205186
-6.29692e-05
-8.14399e-06
-3.62079e-07
-3.91189e-09
-3.17695e-12
-0.00115428
-0.0011543
-0.00115432
-0.00115434
-0.00115436
-0.00115436
-0.00115437
-0.00115437
-0.00115438
-0.00115438
-0.00115438
-0.00115438
-0.00115438
-0.00115438
-0.00115438
-0.00115438
-0.00115438
-0.00115437
-0.00115437
-0.00115436
-0.00115436
-0.00115435
-0.00115434
-0.00115432
-0.00115429
-0.00115426
-0.00115421
-0.00115413
-0.00115403
-0.00115388
-0.0011537
-0.00113828
-0.00112033
-0.00110312
-0.00108811
-0.00107656
-0.0010684
-0.00106054
-0.00104422
-0.00100213
-0.000903225
-0.000694267
-0.000377989
-0.000112469
-1.4375e-05
-6.63369e-07
-7.50027e-09
-6.17304e-12
-0.00115414
-0.00115417
-0.00115422
-0.00115426
-0.00115429
-0.00115432
-0.00115433
-0.00115435
-0.00115436
-0.00115436
-0.00115437
-0.00115438
-0.00115438
-0.00115439
-0.00115439
-0.00115439
-0.0011544
-0.0011544
-0.0011544
-0.00115441
-0.00115441
-0.00115441
-0.00115441
-0.0011544
-0.00115438
-0.00115435
-0.00115429
-0.00115418
-0.00115401
-0.00115376
-0.0011534
-0.00115298
-0.00115252
-0.00115203
-0.00115157
-0.00115121
-0.00115103
-0.00115105
-0.00115114
-0.00115125
-0.00114902
-0.000903225
-0.000513485
-0.000162974
-2.25796e-05
-1.11677e-06
-1.31247e-08
-1.08761e-11
-0.00115396
-0.00115401
-0.00115409
-0.00115416
-0.00115421
-0.00115425
-0.00115428
-0.00115431
-0.00115433
-0.00115434
-0.00115436
-0.00115437
-0.00115438
-0.00115438
-0.00115439
-0.0011544
-0.00115441
-0.00115442
-0.00115442
-0.00115443
-0.00115444
-0.00115444
-0.00115445
-0.00115444
-0.00115441
-0.00115434
-0.00115422
-0.001154
-0.00115367
-0.00115318
-0.00115255
-0.00115179
-0.00115101
-0.00115037
-0.00115
-0.00115
-0.00115034
-0.00115081
-0.00115112
-0.00115118
-0.00115125
-0.00100213
-0.000602898
-0.000211584
-3.26967e-05
-1.74491e-06
-2.11887e-08
-1.76493e-11
-0.00115389
-0.00115395
-0.00115404
-0.00115412
-0.00115418
-0.00115423
-0.00115427
-0.00115431
-0.00115433
-0.00115435
-0.00115437
-0.00115438
-0.0011544
-0.00115441
-0.00115442
-0.00115443
-0.00115444
-0.00115444
-0.00115445
-0.00115446
-0.00115446
-0.00115446
-0.00115445
-0.00115441
-0.00115432
-0.00115414
-0.00115385
-0.00115337
-0.00115267
-0.00115175
-0.00115067
-0.00114958
-0.00114875
-0.00114841
-0.00114867
-0.0011494
-0.0011503
-0.00115099
-0.00115122
-0.00115112
-0.00115114
-0.00104422
-0.000663832
-0.000257349
-4.4279e-05
-2.54216e-06
-3.18057e-08
-2.662e-11
-0.00115376
-0.00115383
-0.00115393
-0.00115403
-0.00115412
-0.00115419
-0.00115424
-0.00115429
-0.00115433
-0.00115436
-0.00115438
-0.00115441
-0.00115442
-0.00115444
-0.00115445
-0.00115446
-0.00115448
-0.00115448
-0.00115449
-0.00115449
-0.00115448
-0.00115446
-0.00115441
-0.0011543
-0.00115408
-0.00115371
-0.00115311
-0.00115224
-0.00115106
-0.00114967
-0.00114827
-0.00114719
-0.0011468
-0.00114723
-0.00114832
-0.00114962
-0.00115063
-0.00115106
-0.00115099
-0.00115081
-0.00115105
-0.00106054
-0.000710429
-0.000300193
-5.67491e-05
-3.47891e-06
-4.47151e-08
-3.75978e-11
-0.00115359
-0.00115367
-0.0011538
-0.00115393
-0.00115404
-0.00115414
-0.00115421
-0.00115428
-0.00115433
-0.00115438
-0.00115441
-0.00115444
-0.00115447
-0.00115449
-0.00115451
-0.00115452
-0.00115453
-0.00115453
-0.00115453
-0.00115451
-0.00115447
-0.00115439
-0.00115424
-0.00115397
-0.00115351
-0.00115279
-0.00115175
-0.00115038
-0.00114875
-0.00114709
-0.00114579
-0.0011453
-0.00114585
-0.00114725
-0.00114893
-0.00115022
-0.00115077
-0.00115063
-0.0011503
-0.00115034
-0.00115103
-0.0010684
-0.00074995
-0.00034006
-6.95262e-05
-4.50941e-06
-5.93412e-08
-5.01059e-11
-0.00115342
-0.00115351
-0.00115366
-0.00115382
-0.00115397
-0.0011541
-0.0011542
-0.00115429
-0.00115436
-0.00115443
-0.00115448
-0.00115452
-0.00115455
-0.00115457
-0.00115459
-0.0011546
-0.0011546
-0.00115459
-0.00115455
-0.00115449
-0.00115436
-0.00115415
-0.00115378
-0.00115321
-0.00115233
-0.00115111
-0.00114953
-0.00114773
-0.00114592
-0.00114453
-0.00114401
-0.00114465
-0.00114626
-0.00114825
-0.00114982
-0.00115046
-0.00115022
-0.00114962
-0.0011494
-0.00115
-0.00115121
-0.00107656
-0.000785757
-0.000376848
-8.21082e-05
-5.58271e-06
-7.49428e-08
-6.35051e-11
-0.00115325
-0.00115334
-0.00115352
-0.00115372
-0.00115392
-0.00115408
-0.00115421
-0.00115433
-0.00115443
-0.00115451
-0.00115457
-0.00115462
-0.00115466
-0.00115469
-0.0011547
-0.0011547
-0.00115467
-0.00115462
-0.00115451
-0.00115433
-0.00115403
-0.00115355
-0.00115281
-0.00115174
-0.00115028
-0.00114845
-0.00114636
-0.00114448
-0.00114325
-0.00114294
-0.00114374
-0.00114554
-0.00114777
-0.00114953
-0.00115021
-0.00114982
-0.00114893
-0.00114832
-0.00114867
-0.00115
-0.00115157
-0.00108811
-0.000818997
-0.000410413
-9.41072e-05
-6.65191e-06
-9.07753e-08
-7.71393e-11
-0.00115308
-0.00115319
-0.00115339
-0.00115364
-0.00115388
-0.00115408
-0.00115426
-0.00115441
-0.00115454
-0.00115464
-0.00115472
-0.00115478
-0.00115481
-0.00115483
-0.00115483
-0.00115479
-0.00115471
-0.00115457
-0.00115433
-0.00115393
-0.00115331
-0.00115238
-0.00115105
-0.0011493
-0.00114709
-0.0011448
-0.00114285
-0.0011417
-0.00113104
-0.00112804
-0.00113224
-0.00114555
-0.00114954
-0.00115018
-0.00114953
-0.00114825
-0.00114725
-0.00114723
-0.00114841
-0.00115037
-0.00115203
-0.00110312
-0.00084972
-0.000440617
-0.000105252
-7.67932e-06
-1.06202e-07
-9.04424e-11
-0.00115294
-0.00115305
-0.00115328
-0.00115357
-0.00115387
-0.00115413
-0.00115435
-0.00115454
-0.0011547
-0.00115482
-0.00115491
-0.00115497
-0.001155
-0.001155
-0.00115496
-0.00115486
-0.00115467
-0.00115436
-0.00115386
-0.00115309
-0.00115196
-0.00115037
-0.00114821
-0.00114571
-0.00114322
-0.00113849
-0.00111898
-0.00110538
-0.00109906
-0.00110077
-0.00110874
-0.00112068
-0.00113932
-0.00114954
-0.00114777
-0.00114626
-0.00114585
-0.0011468
-0.00114875
-0.00115101
-0.00115252
-0.00112033
-0.000877593
-0.000467375
-0.00011537
-8.6377e-06
-1.20745e-07
-1.02988e-10
-0.00115282
-0.00115294
-0.0011532
-0.00115355
-0.00115391
-0.00115423
-0.0011545
-0.00115473
-0.00115492
-0.00115507
-0.00115516
-0.00115521
-0.00115522
-0.00115517
-0.00115505
-0.00115483
-0.00115446
-0.00115385
-0.00115294
-0.00115159
-0.0011497
-0.00114725
-0.00114447
-0.00114178
-0.00111908
-0.0010974
-0.00108225
-0.00107456
-0.00107305
-0.00107844
-0.00108955
-0.00110459
-0.00112068
-0.00114555
-0.00114554
-0.00114465
-0.0011453
-0.00114719
-0.00114958
-0.00115179
-0.00115298
-0.00113828
-0.000902282
-0.000490689
-0.000124375
-9.50979e-06
-1.34086e-07
-1.14495e-10
-0.00115275
-0.00115288
-0.00115317
-0.00115357
-0.00115399
-0.00115438
-0.00115472
-0.00115499
-0.00115522
-0.00115537
-0.00115546
-0.00115549
-0.00115545
-0.00115531
-0.00115505
-0.00115462
-0.00115392
-0.00115285
-0.00115128
-0.0011491
-0.00114643
-0.00114347
-0.0011268
-0.00109978
-0.00107741
-0.00106107
-0.00105012
-0.00104635
-0.00104929
-0.0010583
-0.00107216
-0.00108955
-0.00110874
-0.00113224
-0.00114374
-0.00114401
-0.00114579
-0.00114827
-0.00115067
-0.00115255
-0.0011534
-0.0011537
-0.00092361
-0.00051064
-0.000132254
-1.02879e-05
-1.46069e-07
-1.24827e-10
-0.00115273
-0.00115287
-0.00115319
-0.00115365
-0.00115415
-0.00115461
-0.00115501
-0.00115534
-0.00115559
-0.00115575
-0.00115581
-0.00115578
-0.00115564
-0.00115535
-0.00115484
-0.00115406
-0.00115281
-0.00115101
-0.0011487
-0.00114583
-0.00113485
-0.00110725
-0.00108119
-0.00105874
-0.00103999
-0.00102728
-0.00102119
-0.00102199
-0.00102908
-0.00104152
-0.0010583
-0.00107844
-0.00110077
-0.00112804
-0.00114294
-0.00114453
-0.00114709
-0.00114967
-0.00115175
-0.00115318
-0.00115376
-0.00115388
-0.000941728
-0.000527325
-0.000139056
-1.09722e-05
-1.56664e-07
-1.33956e-10
-0.00115277
-0.00115293
-0.00115328
-0.0011538
-0.00115438
-0.00115493
-0.00115541
-0.00115578
-0.00115605
-0.00115619
-0.00115619
-0.00115604
-0.00115573
-0.00115515
-0.00115419
-0.00115285
-0.00115098
-0.00114841
-0.0011379
-0.00111337
-0.00108738
-0.00106251
-0.00103949
-0.00101977
-0.00100545
-0.00099767
-0.000996653
-0.00100205
-0.00101312
-0.00102908
-0.00104929
-0.00107305
-0.00109906
-0.00113104
-0.00114325
-0.00114592
-0.00114875
-0.00115106
-0.00115267
-0.00115367
-0.00115401
-0.00115403
-0.000956904
-0.000541214
-0.000144833
-1.15622e-05
-1.6584e-07
-1.41859e-10
-0.00115288
-0.00115305
-0.00115344
-0.00115403
-0.0011547
-0.00115536
-0.00115591
-0.00115634
-0.00115661
-0.00115669
-0.00115655
-0.00115617
-0.00115555
-0.00115458
-0.00115303
-0.00115089
-0.00113459
-0.00111462
-0.00109167
-0.00106788
-0.00104367
-0.00101987
-0.000999592
-0.000984369
-0.000975369
-0.000972994
-0.000977014
-0.000986894
-0.00100205
-0.00102199
-0.00104635
-0.00107456
-0.00110538
-0.0011417
-0.00114448
-0.00114773
-0.00115038
-0.00115224
-0.00115337
-0.001154
-0.00115418
-0.00115413
-0.000969426
-0.000552709
-0.000149686
-1.20631e-05
-1.73651e-07
-1.48579e-10
-0.00115305
-0.00115324
-0.00115367
-0.00115434
-0.00115513
-0.0011559
-0.00115655
-0.00115702
-0.00115726
-0.0011572
-0.00115685
-0.00115612
-0.00115395
-0.0011424
-0.00112876
-0.00111181
-0.00109272
-0.00107178
-0.00104823
-0.00102325
-0.000999655
-0.000979089
-0.000963439
-0.000953756
-0.000950475
-0.000953526
-0.000962524
-0.000977014
-0.000996653
-0.00102119
-0.00105012
-0.00108225
-0.00111898
-0.00114285
-0.00114636
-0.00114953
-0.00115175
-0.00115311
-0.00115385
-0.00115422
-0.00115429
-0.00115421
-0.00097966
-0.000562213
-0.000153756
-1.2486e-05
-1.80246e-07
-1.54242e-10
-0.00115328
-0.00115349
-0.00115399
-0.00115475
-0.00115567
-0.00115658
-0.00115734
-0.00115783
-0.00115797
-0.00115766
-0.00115022
-0.00113791
-0.00112445
-0.00110983
-0.00109336
-0.00107408
-0.00105111
-0.00102669
-0.00100185
-0.000978227
-0.000957824
-0.000942119
-0.00093217
-0.000928448
-0.00093096
-0.000939431
-0.000953526
-0.000972994
-0.00099767
-0.00102728
-0.00106107
-0.0010974
-0.00113849
-0.0011448
-0.00114845
-0.00115111
-0.00115279
-0.00115371
-0.00115414
-0.00115434
-0.00115435
-0.00115426
-0.000987947
-0.00057011
-0.000157194
-1.28453e-05
-1.85841e-07
-1.59034e-10
-0.00115355
-0.0011538
-0.00115436
-0.00115525
-0.00115632
-0.00115739
-0.00115826
-0.00115873
-0.00115859
-0.0011424
-0.0011272
-0.00111192
-0.00109505
-0.0010752
-0.00105328
-0.00102941
-0.00100406
-0.000978924
-0.000955489
-0.000935336
-0.000919867
-0.000910009
-0.000906241
-0.000908621
-0.000916947
-0.00093096
-0.000950475
-0.000975369
-0.00100545
-0.00103999
-0.00107741
-0.00111908
-0.00114322
-0.00114709
-0.00115028
-0.00115233
-0.00115351
-0.00115408
-0.00115432
-0.00115441
-0.00115438
-0.00115429
-0.000994605
-0.000576749
-0.000160149
-1.31563e-05
-1.90677e-07
-1.63164e-10
-0.00115384
-0.00115414
-0.00115479
-0.00115581
-0.00115707
-0.00115831
-0.00115926
-0.0011595
-0.00114015
-0.00112101
-0.00110127
-0.00108003
-0.00105723
-0.00103254
-0.00100668
-0.000980357
-0.000954699
-0.00093123
-0.000911345
-0.000896216
-0.000886701
-0.000883218
-0.000885824
-0.000894363
-0.000908621
-0.000928448
-0.000953756
-0.000984369
-0.00101977
-0.00105874
-0.00109978
-0.00114178
-0.00114571
-0.0011493
-0.00115174
-0.00115321
-0.00115397
-0.0011543
-0.00115441
-0.00115444
-0.0011544
-0.00115432
-0.000999914
-0.000582432
-0.000162751
-1.34331e-05
-1.94978e-07
-1.66828e-10
-0.00115413
-0.00115447
-0.00115523
-0.00115642
-0.00115786
-0.00115927
-0.00116011
-0.00114323
-0.00111877
-0.00109332
-0.00106729
-0.00104025
-0.00101234
-0.000983914
-0.000955876
-0.00092932
-0.00090548
-0.000885646
-0.00087086
-0.000861809
-0.000858829
-0.000861949
-0.000871012
-0.000885824
-0.000906241
-0.00093217
-0.000963439
-0.000999592
-0.00103949
-0.00108119
-0.0011268
-0.00114447
-0.00114821
-0.00115105
-0.00115281
-0.00115378
-0.00115424
-0.00115441
-0.00115445
-0.00115445
-0.00115441
-0.00115434
-0.00100415
-0.000587421
-0.000165116
-1.3688e-05
-1.9892e-07
-1.70189e-10
-0.00115435
-0.00115476
-0.00115564
-0.00115699
-0.0011586
-0.00116003
-0.00115074
-0.00112039
-0.00108941
-0.0010577
-0.00102568
-0.000993518
-0.000961764
-0.000931237
-0.000903053
-0.000878383
-0.000858302
-0.000843677
-0.000835063
-0.000832679
-0.000836493
-0.00084632
-0.000861949
-0.000883218
-0.000910009
-0.000942119
-0.000979089
-0.00101987
-0.00106251
-0.00110725
-0.00114347
-0.00114725
-0.00115037
-0.00115238
-0.00115355
-0.00115415
-0.00115439
-0.00115446
-0.00115446
-0.00115444
-0.00115441
-0.00115435
-0.00100769
-0.000592055
-0.000167374
-1.3932e-05
-2.02618e-07
-1.73357e-10
-0.00115446
-0.00115493
-0.00115593
-0.00115743
-0.00115912
-0.00116019
-0.00112511
-0.00108951
-0.00105207
-0.00101436
-0.000977063
-0.000940993
-0.000907135
-0.000876572
-0.000850397
-0.000829563
-0.000814765
-0.000806395
-0.000804558
-0.000809126
-0.000819857
-0.000836493
-0.000858829
-0.000886701
-0.000919867
-0.000957824
-0.000999656
-0.00104367
-0.00108738
-0.00113485
-0.00114643
-0.0011497
-0.00115196
-0.00115331
-0.00115403
-0.00115436
-0.00115447
-0.00115448
-0.00115446
-0.00115444
-0.00115441
-0.00115436
-0.0010106
-0.000596245
-0.000169472
-1.41627e-05
-2.06155e-07
-1.76387e-10
-0.00115433
-0.00115486
-0.00115595
-0.0011575
-0.00115894
-0.00113195
-0.00109288
-0.00105032
-0.00100682
-0.000963784
-0.000922573
-0.000884453
-0.000850624
-0.00082216
-0.000799909
-0.00078443
-0.000775964
-0.000774472
-0.000779721
-0.000791383
-0.000809126
-0.000832679
-0.00086181
-0.000896216
-0.000935336
-0.000978227
-0.00102325
-0.00106788
-0.00111337
-0.00114583
-0.0011491
-0.00115159
-0.00115309
-0.00115393
-0.00115433
-0.00115449
-0.00115451
-0.00115449
-0.00115446
-0.00115443
-0.00115441
-0.00115436
-0.00101292
-0.000600013
-0.000171415
-1.43802e-05
-2.09535e-07
-1.79282e-10
-0.00115378
-0.00115434
-0.00115542
-0.00115672
-0.00113858
-0.00109781
-0.00105155
-0.00100287
-0.000954072
-0.000907188
-0.000864011
-0.000826029
-0.000794413
-0.000769983
-0.000753188
-0.000744135
-0.00074265
-0.000748374
-0.000760872
-0.000779721
-0.000804558
-0.000835063
-0.000870861
-0.000911345
-0.00095549
-0.00100185
-0.00104823
-0.00109167
-0.0011379
-0.0011487
-0.00115128
-0.00115294
-0.00115386
-0.00115433
-0.00115451
-0.00115455
-0.00115453
-0.00115449
-0.00115445
-0.00115442
-0.0011544
-0.00115437
-0.00101482
-0.000603402
-0.000173199
-1.45828e-05
-2.12725e-07
-1.82019e-10
-0.00115245
-0.00115294
-0.00115378
-0.00113948
-0.00109933
-0.00105357
-0.00100142
-0.000947596
-0.000895058
-0.000846361
-0.0008035
-0.000767914
-0.000740504
-0.000721685
-0.000711458
-0.000709524
-0.000715398
-0.000728526
-0.000748374
-0.000774472
-0.000806395
-0.000843677
-0.000885646
-0.000931231
-0.000978924
-0.00102669
-0.00107178
-0.00111462
-0.00114841
-0.00115101
-0.00115285
-0.00115385
-0.00115436
-0.00115457
-0.00115462
-0.00115459
-0.00115454
-0.00115448
-0.00115444
-0.00115442
-0.0011544
-0.00115437
-0.00101645
-0.000606436
-0.000174813
-1.47684e-05
-2.15682e-07
-1.84559e-10
-0.00114985
-0.00115015
-0.00113023
-0.00109535
-0.00105273
-0.00100022
-0.000943103
-0.0008857
-0.000831568
-0.000783453
-0.00074327
-0.000712163
-0.000690613
-0.000678583
-0.000675675
-0.000681288
-0.000694748
-0.000715399
-0.000742651
-0.000775964
-0.000814765
-0.000858303
-0.000905481
-0.0009547
-0.00100406
-0.00105111
-0.00109272
-0.0011346
-0.00115099
-0.00115281
-0.00115392
-0.00115446
-0.00115467
-0.00115471
-0.00115467
-0.0011546
-0.00115453
-0.00115448
-0.00115444
-0.00115441
-0.0011544
-0.00115438
-0.00101791
-0.00060913
-0.000176248
-1.49348e-05
-2.18363e-07
-1.86866e-10
-0.00112315
-0.0011085
-0.00108304
-0.00104597
-0.000996007
-0.000938262
-0.000877708
-0.000818979
-0.000765785
-0.000720747
-0.000685447
-0.000660578
-0.000646157
-0.000641745
-0.000646653
-0.000660093
-0.000681289
-0.000709524
-0.000744136
-0.000784431
-0.000829563
-0.000878384
-0.00092932
-0.000980358
-0.00102942
-0.00107408
-0.00111181
-0.00115089
-0.00115285
-0.00115406
-0.00115462
-0.00115483
-0.00115486
-0.00115479
-0.0011547
-0.0011546
-0.00115452
-0.00115446
-0.00115443
-0.0011544
-0.00115439
-0.00115438
-0.00101924
-0.000611481
-0.000177495
-1.50805e-05
-2.20735e-07
-1.88908e-10
-0.00107418
-0.00105974
-0.00102949
-0.000985012
-0.000929667
-0.00086856
-0.000806978
-0.000749632
-0.000700045
-0.000660448
-0.000631926
-0.000614682
-0.000608321
-0.000612114
-0.000625187
-0.000646654
-0.000675675
-0.000711459
-0.000753189
-0.00079991
-0.000850397
-0.000903054
-0.000955877
-0.00100668
-0.00105328
-0.00109336
-0.00112876
-0.00115303
-0.00115419
-0.00115484
-0.00115505
-0.00115505
-0.00115496
-0.00115483
-0.0011547
-0.00115459
-0.00115451
-0.00115445
-0.00115442
-0.00115439
-0.00115439
-0.00115438
-0.00102042
-0.000613469
-0.000178542
-1.52035e-05
-2.22759e-07
-1.90652e-10
-0.00101626
-0.000997733
-0.000962154
-0.000912863
-0.000854521
-0.000792753
-0.000733095
-0.000680026
-0.000636613
-0.00060453
-0.000584326
-0.00057577
-0.000578168
-0.000590606
-0.000612115
-0.000641746
-0.000678583
-0.000721686
-0.000769984
-0.000822161
-0.000876573
-0.000931238
-0.000983915
-0.00103255
-0.0010752
-0.00110984
-0.0011424
-0.00115458
-0.00115515
-0.00115535
-0.00115531
-0.00115517
-0.001155
-0.00115483
-0.00115469
-0.00115457
-0.00115449
-0.00115444
-0.00115441
-0.00115438
-0.00115439
-0.00115438
-0.00102138
-0.000615039
-0.000179366
-1.53009e-05
-2.24377e-07
-1.92049e-10
-0.000941118
-0.00092018
-0.000881654
-0.00083034
-0.000772052
-0.000712946
-0.000658416
-0.000612461
-0.000577526
-0.000554692
-0.000544035
-0.000545005
-0.000556718
-0.000578168
-0.000608322
-0.000646157
-0.000690614
-0.000740505
-0.000794414
-0.000850625
-0.000907136
-0.000961766
-0.00101234
-0.00105723
-0.00109505
-0.00112445
-0.00115395
-0.00115555
-0.00115573
-0.00115564
-0.00115545
-0.00115522
-0.001155
-0.00115481
-0.00115466
-0.00115455
-0.00115447
-0.00115442
-0.0011544
-0.00115438
-0.00115438
-0.00115438
-0.00102201
-0.000616103
-0.000179924
-1.53675e-05
-2.25501e-07
-1.9302e-10
-0.000849573
-0.000827876
-0.000788979
-0.000738947
-0.000684391
-0.000631511
-0.000585272
-0.000549019
-0.000524538
-0.000512386
-0.000512287
-0.000523487
-0.000545005
-0.00057577
-0.000614682
-0.000660579
-0.000712164
-0.000767915
-0.000826031
-0.000884454
-0.000940995
-0.00099352
-0.00104026
-0.00108003
-0.00111192
-0.00113791
-0.00115612
-0.00115617
-0.00115604
-0.00115578
-0.00115549
-0.00115521
-0.00115497
-0.00115478
-0.00115462
-0.00115452
-0.00115444
-0.00115441
-0.00115438
-0.00115437
-0.00115438
-0.00115438
-0.00102216
-0.000616535
-0.000180158
-1.53963e-05
-2.2601e-07
-1.93463e-10
-0.000743031
-0.000722327
-0.000686127
-0.000641129
-0.000594106
-0.000550905
-0.000515829
-0.000491509
-0.000479142
-0.000478881
-0.000490219
-0.000512287
-0.000544036
-0.000584326
-0.000631927
-0.000685448
-0.000743271
-0.000803502
-0.000864013
-0.000922575
-0.000977065
-0.00102568
-0.00106729
-0.00110127
-0.0011272
-0.00115022
-0.00115685
-0.00115655
-0.00115619
-0.00115581
-0.00115546
-0.00115516
-0.00115491
-0.00115472
-0.00115457
-0.00115448
-0.00115441
-0.00115438
-0.00115437
-0.00115436
-0.00115437
-0.00115438
-0.00102166
-0.000616177
-0.00017999
-1.53785e-05
-2.25755e-07
-1.93249e-10
-0.000624666
-0.000606848
-0.000576458
-0.000540089
-0.000504082
-0.000473563
-0.000452045
-0.00044149
-0.00044262
-0.000455304
-0.000478881
-0.000512386
-0.000554692
-0.00060453
-0.000660448
-0.000720748
-0.000783454
-0.000846363
-0.00090719
-0.000963785
-0.00101436
-0.0010577
-0.00109332
-0.00112101
-0.0011424
-0.00115766
-0.0011572
-0.00115669
-0.00115619
-0.00115575
-0.00115537
-0.00115507
-0.00115482
-0.00115464
-0.00115451
-0.00115443
-0.00115438
-0.00115436
-0.00115435
-0.00115434
-0.00115436
-0.00115438
-0.00102034
-0.000614847
-0.000179334
-1.5304e-05
-2.24572e-07
-1.92236e-10
-0.000499725
-0.000486442
-0.000464513
-0.000439716
-0.000417435
-0.000401848
-0.000395671
-0.000400292
-0.000416063
-0.00044262
-0.000479141
-0.000524538
-0.000577527
-0.000636613
-0.000700045
-0.000765786
-0.000831569
-0.000895059
-0.000954074
-0.00100682
-0.00105208
-0.00108941
-0.00111877
-0.00114015
-0.00115859
-0.00115797
-0.00115726
-0.00115661
-0.00115605
-0.00115559
-0.00115522
-0.00115492
-0.0011547
-0.00115454
-0.00115443
-0.00115436
-0.00115433
-0.00115433
-0.00115433
-0.00115433
-0.00115436
-0.00115438
-0.00101798
-0.000612346
-0.000178099
-1.51628e-05
-2.22303e-07
-1.90289e-10
-0.000375307
-0.00036766
-0.000355882
-0.000344412
-0.000337384
-0.000337982
-0.000348213
-0.000368982
-0.000400292
-0.000441489
-0.000491509
-0.000549018
-0.000612461
-0.000680026
-0.000749633
-0.00081898
-0.000885701
-0.000947597
-0.00100287
-0.00105032
-0.00108951
-0.00112039
-0.00114323
-0.0011595
-0.00115873
-0.00115783
-0.00115702
-0.00115634
-0.00115578
-0.00115534
-0.00115499
-0.00115473
-0.00115454
-0.00115441
-0.00115433
-0.00115429
-0.00115428
-0.00115429
-0.00115431
-0.00115431
-0.00115435
-0.00115437
-0.00101433
-0.000608455
-0.000176192
-1.49453e-05
-2.18796e-07
-1.87277e-10
-0.00025982
-0.000258048
-0.000256684
-0.000258677
-0.000266949
-0.000283839
-0.000310781
-0.000348213
-0.00039567
-0.000452044
-0.000515829
-0.000585271
-0.000658415
-0.000733095
-0.000806978
-0.000877708
-0.000943103
-0.00100142
-0.00105155
-0.00109288
-0.00112511
-0.00115074
-0.00116011
-0.00115926
-0.00115826
-0.00115734
-0.00115655
-0.00115591
-0.00115541
-0.00115501
-0.00115472
-0.0011545
-0.00115435
-0.00115426
-0.00115421
-0.0011542
-0.00115421
-0.00115424
-0.00115427
-0.00115428
-0.00115433
-0.00115437
-0.00100909
-0.000602897
-0.000173498
-1.46399e-05
-2.13868e-07
-1.83041e-10
-0.000161591
-0.000164889
-0.000172535
-0.000186343
-0.000208429
-0.000240603
-0.000283839
-0.000337981
-0.000401847
-0.000473561
-0.000550904
-0.00063151
-0.000712945
-0.000792752
-0.000868559
-0.000938262
-0.00100022
-0.00105357
-0.00109781
-0.00113195
-0.00116019
-0.00116003
-0.00115927
-0.00115831
-0.00115739
-0.00115658
-0.0011559
-0.00115536
-0.00115493
-0.00115461
-0.00115438
-0.00115423
-0.00115413
-0.00115408
-0.00115408
-0.0011541
-0.00115414
-0.00115419
-0.00115423
-0.00115425
-0.00115432
-0.00115436
-0.00100186
-0.000595273
-0.000169848
-1.4229e-05
-2.07241e-07
-1.77342e-10
-8.68531e-05
-9.34325e-05
-0.000107186
-0.000129645
-0.000162831
-0.000208428
-0.000266948
-0.000337383
-0.000417433
-0.00050408
-0.000594104
-0.000684389
-0.00077205
-0.00085452
-0.000929666
-0.000996006
-0.00105273
-0.00109933
-0.00113858
-0.00115894
-0.00115912
-0.0011586
-0.00115786
-0.00115707
-0.00115632
-0.00115567
-0.00115513
-0.0011547
-0.00115438
-0.00115415
-0.00115399
-0.00115391
-0.00115387
-0.00115388
-0.00115392
-0.00115397
-0.00115404
-0.00115412
-0.00115418
-0.00115421
-0.00115429
-0.00115436
-0.000992173
-0.000585054
-0.000165013
-1.36887e-05
-1.98514e-07
-1.69839e-10
-3.78116e-05
-4.53131e-05
-6.14524e-05
-8.86377e-05
-0.000129644
-0.000186342
-0.000258675
-0.00034441
-0.000439713
-0.000540087
-0.000641126
-0.000738945
-0.000830338
-0.000912861
-0.00098501
-0.00104597
-0.00109535
-0.00113948
-0.00115672
-0.0011575
-0.00115743
-0.00115699
-0.00115642
-0.00115581
-0.00115525
-0.00115475
-0.00115434
-0.00115403
-0.0011538
-0.00115365
-0.00115357
-0.00115355
-0.00115357
-0.00115364
-0.00115372
-0.00115382
-0.00115393
-0.00115403
-0.00115412
-0.00115416
-0.00115426
-0.00115434
-0.000979791
-0.000571813
-0.000158812
-1.30016e-05
-1.87403e-07
-1.60288e-10
-1.17734e-05
-1.80025e-05
-3.31151e-05
-6.1452e-05
-0.000107185
-0.000172533
-0.000256682
-0.000355879
-0.00046451
-0.000576454
-0.000686123
-0.000788975
-0.000881651
-0.000962151
-0.00102949
-0.00108304
-0.00113023
-0.00115378
-0.00115542
-0.00115595
-0.00115593
-0.00115564
-0.00115523
-0.00115479
-0.00115436
-0.00115399
-0.00115367
-0.00115344
-0.00115328
-0.00115319
-0.00115317
-0.0011532
-0.00115328
-0.00115339
-0.00115352
-0.00115366
-0.0011538
-0.00115393
-0.00115404
-0.00115409
-0.00115422
-0.00115432
-0.000965313
-0.000555989
-0.000151479
-1.21984e-05
-1.74423e-07
-1.49141e-10
-1.96769e-06
-5.77525e-06
-1.80023e-05
-4.53126e-05
-9.34313e-05
-0.000164887
-0.000258046
-0.000367656
-0.000486438
-0.000606844
-0.000722323
-0.000827872
-0.000920177
-0.000997731
-0.00105974
-0.0011085
-0.00115015
-0.00115294
-0.00115434
-0.00115486
-0.00115493
-0.00115476
-0.00115447
-0.00115414
-0.0011538
-0.00115349
-0.00115324
-0.00115305
-0.00115293
-0.00115287
-0.00115288
-0.00115294
-0.00115305
-0.00115319
-0.00115334
-0.00115351
-0.00115367
-0.00115383
-0.00115395
-0.00115401
-0.00115417
-0.0011543
-0.000951095
-0.00054012
-0.00014422
-1.14151e-05
-1.61821e-07
-1.38328e-10
-8.54448e-08
-1.96766e-06
-1.17731e-05
-3.7811e-05
-8.68517e-05
-0.000161589
-0.000259817
-0.000375303
-0.000499721
-0.000624662
-0.000743027
-0.000849569
-0.000941115
-0.00101626
-0.00107418
-0.00112315
-0.00114985
-0.00115245
-0.00115378
-0.00115433
-0.00115446
-0.00115435
-0.00115413
-0.00115384
-0.00115355
-0.00115328
-0.00115305
-0.00115288
-0.00115277
-0.00115273
-0.00115275
-0.00115282
-0.00115294
-0.00115308
-0.00115325
-0.00115342
-0.00115359
-0.00115376
-0.00115389
-0.00115396
-0.00115414
-0.00115428
-0.000941619
-0.000529387
-0.000139374
-1.08993e-05
-1.5357e-07
-1.31252e-10
)
;

boundaryField
{
    inlet
    {
        type            cyclic;
    }
    outlet
    {
        type            cyclic;
    }
    walls
    {
        type            calculated;
        value           nonuniform List<scalar> 
96
(
-1.41512e-15
-2.78339e-14
-1.68893e-13
-5.8974e-13
-1.53937e-12
-3.35805e-12
-6.46793e-12
-1.13216e-11
-1.82854e-11
-2.7489e-11
-3.87399e-11
-5.15523e-11
-6.52721e-11
-7.92267e-11
-9.28355e-11
-1.05661e-10
-1.17419e-10
-1.27969e-10
-1.37285e-10
-1.45346e-10
-1.52196e-10
-1.57966e-10
-1.62843e-10
-1.67042e-10
-1.70764e-10
-1.74176e-10
-1.77391e-10
-1.80465e-10
-1.83404e-10
-1.86182e-10
-1.88762e-10
-1.91107e-10
-1.93184e-10
-1.94958e-10
-1.96379e-10
-1.97369e-10
-1.9782e-10