/*--------------------------------*- C++ -*----------------------------------*\
| =========                 |                                                 |
| \\      /  F ield         | OpenFOAM: The Open Source CFD Toolbox           |
|  \\    /   O peration     | Version:  2506                                  |
|   \\  /    A nd           | Website:  www.openfoam.com                      |
|    \\/     M anipulation  |                                                 |
\*---------------------------------------------------------------------------*/
FoamFile
{
    version     2.0;
    format      ascii;
    arch        "LSB;label=32;scalar=64";
    class       volScalarField;
    location    "2137";
    object      k;
}
// * * * * * * * * * * * * * * * * * * * * * * * * * * * * * * * * * * * * * //

dimensions      [0 2 -2 0 0 0 0];

internalField   nonuniform List<scalar> 
2304
(
1.32739e-05
1.36236e-05
1.41419e-05
1.4658e-05
1.50871e-05
1.5417e-05
1.56637e-05
1.58452e-05
1.59736e-05
1.60565e-05
1.61002e-05
1.61104e-05
1.60932e-05
1.60537e-05
1.5996e-05
1.5923e-05
1.58367e-05
1.57379e-05
1.56278e-05
1.55077e-05
1.53792e-05
1.52434e-05
1.51003e-05
1.49476e-05
1.47803e-05
1.45905e-05
1.43685e-05
1.41027e-05
1.37817e-05
1.33948e-05
1.29336e-05
1.23906e-05
1.17557e-05
1.10209e-05
1.01826e-05
9.24281e-06
8.21292e-06
7.11599e-06
5.98797e-06
4.8747e-06
3.82454e-06
2.87841e-06
2.06218e-06
1.38606e-06
8.4982e-07
4.48353e-07
1.76698e-07
3.54376e-08
1.11829e-05
1.14496e-05
1.18567e-05
1.22788e-05
1.26485e-05
1.29499e-05
1.31893e-05
1.33759e-05
1.35167e-05
1.36164e-05
1.36795e-05
1.37105e-05
1.37142e-05
1.36945e-05
1.36539e-05
1.35929e-05
1.35109e-05
1.34063e-05
1.32785e-05
1.31286e-05
1.29602e-05
1.27786e-05
1.25905e-05
1.24008e-05
1.22094e-05
1.20133e-05
1.18066e-05
1.15807e-05
1.13246e-05
1.10271e-05
1.06781e-05
1.02686e-05
9.78703e-06
9.22183e-06
8.56199e-06
7.79886e-06
6.93035e-06
5.96702e-06
4.93766e-06
3.89092e-06
2.89009e-06
2.00048e-06
1.27188e-06
7.27438e-07
3.61317e-07
1.46942e-07
5.76196e-08
1.76698e-07
6.89491e-05
7.05283e-05
7.29544e-05
7.54942e-05
7.77457e-05
7.96046e-05
8.1098e-05
8.22748e-05
8.3172e-05
8.38165e-05
8.42337e-05
8.4452e-05
8.44996e-05
8.43996e-05
8.41647e-05
8.37968e-05
8.32879e-05
8.26255e-05
8.1803e-05
8.08271e-05
7.97218e-05
7.85259e-05
7.7287e-05
7.60512e-05
7.48182e-05
7.35748e-05
7.22888e-05
7.09079e-05
6.93652e-05
6.7588e-05
6.55095e-05
6.30723e-05
6.02011e-05
5.68181e-05
5.28445e-05
4.82107e-05
4.28836e-05
3.69097e-05
3.04576e-05
2.38362e-05
1.7468e-05
1.18087e-05
7.21294e-06
3.85369e-06
1.69604e-06
5.45941e-07
1.46942e-07
4.48353e-07
0.000249514
0.000254799
0.000262922
0.000271438
0.00027901
0.000285284
0.00029034
0.000294333
0.000297386
0.000299588
0.000301024
0.000301792
0.000301985
0.000301677
0.000300911
0.000299687
0.000297975
0.000295725
0.00029291
0.00028955
0.000285723
0.000281564
0.000277239
0.000272899
0.000268555
0.000264175
0.000259656
0.000254826
0.00024946
0.000243305
0.000236117
0.000227678
0.000217732
0.000206003
0.000192195
0.000176024
0.000157303
0.000136101
0.000112904
8.87362e-05
6.51187e-05
4.38354e-05
2.64211e-05
1.37288e-05
5.74497e-06
1.69604e-06
3.61317e-07
8.4982e-07
0.000582891
0.000593
0.000608565
0.000624956
0.000639639
0.000651907
0.000661865
0.000669773
0.000675851
0.00068027
0.000683201
0.000684829
0.000685331
0.000684847
0.000683441
0.0006811
0.00067774
0.000673243
0.00066753
0.000660624
0.000652677
0.000643958
0.000634806
0.000625508
0.000616153
0.000606711
0.000597014
0.000586741
0.000575455
0.000562635
0.000547726
0.000530173
0.000509462
0.000484976
0.000455974
0.000421639
0.000381237
0.000334428
0.000281696
0.000224785
0.000166956
0.000112864
6.74427e-05
3.41747e-05
1.37288e-05
3.85369e-06
7.27437e-07
1.38606e-06
0.000986686
0.000999188
0.00101861
0.00103936
0.0010583
0.00107442
0.00108771
0.00109838
0.00110666
0.00111276
0.00111689
0.0011193
0.0011202
0.00111976
0.00111803
0.00111496
0.00111039
0.00110411
0.00109596
0.00108595
0.00107428
0.00106132
0.00104755
0.0010334
0.0010191
0.00100467
0.000989974
0.000974622
0.000958062
0.000939583
0.000918349
0.000893362
0.000863951
0.000829153
0.000787669
0.000737898
0.000678084
0.000606685
0.000523025
0.000428206
0.000326129
0.00022455
0.000134797
6.74427e-05
2.64211e-05
7.21294e-06
1.27188e-06
2.06218e-06
0.00135832
0.00137013
0.00138884
0.00140939
0.00142876
0.00144576
0.00146009
0.00147179
0.001481
0.00148788
0.00149265
0.00149555
0.00149679
0.00149651
0.00149473
0.00149133
0.00148606
0.00147863
0.00146881
0.00145657
0.00144211
0.0014259
0.00140851
0.00139051
0.00137225
0.00135392
0.00133544
0.00131647
0.00129648
0.00127469
0.00125014
0.0012215
0.00118806
0.00114859
0.00110131
0.0010439
0.000973543
0.000887209
0.000782378
0.000658202
0.000517044
0.00036662
0.00022455
0.000112864
4.38354e-05
1.18087e-05
2.00048e-06
2.87841e-06
0.00166108
0.00167068
0.00168642
0.00170446
0.00172226
0.00173849
0.00175259
0.00176432
0.00177367
0.00178076
0.00178577
0.0017889
0.00179033
0.00179017
0.00178838
0.00178477
0.00177903
0.00177077
0.00175969
0.00174573
0.00172909
0.00171028
0.00168996
0.00166881
0.00164734
0.00162585
0.00160441
0.00158277
0.00156046
0.00153675
0.00151071
0.00148126
0.00144727
0.00140722
0.00135893
0.00129954
0.00122541
0.00113231
0.0010161
0.000873984
0.0007063
0.000517044
0.000326129
0.000166956
6.51187e-05
1.7468e-05
2.89009e-06
3.82454e-06
0.00190058
0.00190715
0.00191855
0.00193257
0.00194734
0.00196153
0.00197431
0.0019852
0.00199402
0.0020008
0.00200563
0.00200869
0.0020101
0.00200988
0.00200796
0.00200408
0.00199784
0.00198882
0.00197665
0.00196124
0.00194282
0.00192194
0.00189936
0.00187584
0.00185203
0.00182837
0.00180503
0.00178189
0.00175856
0.00173436
0.00170841
0.00167961
0.00164669
0.00160794
0.00156096
0.00150253
0.0014284
0.00133343
0.001212
0.00105941
0.000873984
0.000658201
0.000428206
0.000224785
8.87362e-05
2.38362e-05
3.89092e-06
4.8747e-06
0.0020864
0.0020897
0.00209632
0.00210562
0.00211653
0.00212785
0.00213853
0.00214791
0.00215564
0.00216164
0.00216592
0.00216857
0.00216964
0.00216911
0.00216681
0.00216243
0.00215552
0.00214561
0.00213234
0.00211561
0.00209572
0.00207325
0.00204905
0.00202396
0.00199875
0.00197394
0.00194978
0.00192623
0.00190296
0.00187938
0.0018546
0.00182751
0.0017967
0.0017603
0.00171573
0.00165951
0.00158705
0.00149264
0.00136968
0.001212
0.0010161
0.000782378
0.000523025
0.000281696
0.000112904
3.04576e-05
4.93766e-06
5.98797e-06
0.00222949
0.0022297
0.00223162
0.00223608
0.00224278
0.00225072
0.00225879
0.00226617
0.00227237
0.00227718
0.00228053
0.00228243
0.00228285
0.00228168
0.0022787
0.00227354
0.00226572
0.00225477
0.00224035
0.00222242
0.00220133
0.00217776
0.0021526
0.00212675
0.00210103
0.00207599
0.00205193
0.00202884
0.00200642
0.00198412
0.00196109
0.00193615
0.00190779
0.00187399
0.00183204
0.00177832
0.00170803
0.00161521
0.00149264
0.00133343
0.00113231
0.000887209
0.000606685
0.000334428
0.000136101
3.69097e-05
5.96701e-06
7.11599e-06
0.00233953
0.00233698
0.00233459
0.00233439
0.00233679
0.0023411
0.00234622
0.00235123
0.00235553
0.00235881
0.0023609
0.00236172
0.00236116
0.00235905
0.00235509
0.00234888
0.00233994
0.00232783
0.00231227
0.00229331
0.00227137
0.00224721
0.00222173
0.00219588
0.00217044
0.00214596
0.00212273
0.00210073
0.00207966
0.002059
0.0020379
0.00201517
0.00198921
0.00195789
0.00191841
0.00186705
0.00179896
0.00170803
0.00158705
0.0014284
0.00122541
0.000973543
0.000678084
0.000381236
0.000157303
4.28836e-05
6.93035e-06
8.21292e-06
0.00242393
0.00241903
0.00241283
0.00240829
0.00240649
0.00240706
0.00240901
0.00241138
0.00241349
0.00241493
0.00241546
0.0024149
0.00241307
0.00240973
0.00240454
0.00239707
0.00238688
0.00237357
0.00235697
0.00233723
0.00231486
0.00229063
0.00226548
0.0022403
0.00221583
0.00219256
0.00217071
0.00215024
0.00213084
0.00211197
0.00209281
0.00207219
0.00204845
0.0020194
0.00198216
0.00193299
0.00186705
0.00177832
0.00165951
0.00150253
0.00129954
0.0010439
0.000737898
0.000421639
0.000176024
4.82107e-05
7.79886e-06
9.24281e-06
0.0024882
0.00248134
0.00247184
0.00246336
0.00245755
0.00245438
0.00245302
0.00245254
0.00245221
0.00245155
0.00245024
0.00244803
0.00244467
0.00243986
0.00243324
0.00242439
0.0024129
0.00239848
0.00238105
0.00236087
0.00233851
0.00231477
0.00229054
0.00226664
0.0022437
0.00222214
0.00220209
0.00218349
0.00216597
0.002149
0.00213177
0.00211311
0.0020914
0.00206441
0.00202924
0.00198216
0.00191841
0.00183204
0.00171573
0.00156096
0.00135893
0.00110131
0.000787669
0.000455974
0.000192195
5.28445e-05
8.56199e-06
1.01826e-05
0.00253632
0.00252786
0.00251555
0.00250355
0.00249397
0.00248712
0.00248238
0.00247888
0.0024759
0.0024729
0.00246951
0.00246541
0.0024603
0.00245385
0.00244568
0.00243541
0.00242269
0.00240733
0.00238938
0.00236917
0.00234732
0.0023246
0.00230181
0.00227969
0.00225873
0.00223927
0.00222135
0.00220487
0.00218941
0.00217448
0.00215922
0.00214249
0.00212267
0.0020976
0.00206441
0.0020194
0.00195789
0.00187399
0.0017603
0.00160794
0.00140722
0.00114859
0.000829153
0.000484976
0.000206003
5.68181e-05
9.22183e-06
1.10209e-05
0.00257122
0.00256148
0.00254681
0.00253168
0.00251858
0.00250815
0.0025
0.00249336
0.00248754
0.002482
0.00247631
0.00247013
0.00246311
0.00245491
0.00244516
0.00243353
0.00241975
0.00240375
0.00238566
0.00236588
0.00234503
0.00232381
0.00230293
0.00228299
0.00226436
0.00224727
0.00223168
0.00221751
0.0022044
0.00219173
0.0021786
0.00216381
0.00214585
0.00212267
0.0020914
0.00204845
0.00198921
0.00190779
0.0017967
0.00164669
0.00144727
0.00118806
0.000863951
0.000509461
0.000217731
6.02011e-05
9.78703e-06
1.17557e-05
0.00259504
0.00258429
0.00256763
0.00254973
0.00253337
0.00251949
0.00250792
0.00249806
0.00248927
0.00248102
0.00247287
0.00246447
0.00245545
0.00244547
0.00243421
0.00242139
0.00240683
0.00239056
0.00237277
0.0023539
0.00233452
0.00231524
0.00229663
0.00227916
0.00226304
0.00224851
0.0022356
0.00222409
0.00221356
0.00220335
0.00219251
0.00217985
0.00216381
0.00214249
0.00211311
0.00207219
0.00201517
0.00193615
0.00182751
0.00167961
0.00148126
0.0012215
0.000893362
0.000530173
0.000227678
6.30722e-05
1.02686e-05
1.23906e-05
0.00260936
0.00259779
0.00257947
0.00255912
0.00253974
0.00252255
0.00250761
0.00249448
0.00248262
0.00247155
0.00246085
0.00245016
0.00243915
0.00242748
0.00241489
0.00240116
0.0023862
0.00237009
0.00235308
0.00233557
0.00231807
0.00230106
0.00228494
0.00227008
0.00225678
0.00224518
0.0022352
0.00222658
0.00221883
0.00221125
0.00220288
0.00219251
0.0021786
0.00215922
0.00213176
0.00209281
0.0020379
0.00196109
0.0018546
0.00170841
0.00151071
0.00125014
0.000918349
0.000547726
0.000236117
6.55094e-05
1.06781e-05
1.29336e-05
0.00261529
0.00260308
0.00258336
0.00256084
0.00253868
0.00251832
0.00250008
0.00248369
0.00246874
0.00245482
0.00244156
0.00242865
0.00241576
0.00240261
0.00238898
0.00237472
0.00235979
0.0023443
0.00232851
0.00231276
0.0022974
0.00228282
0.00226942
0.00225753
0.00224734
0.0022389
0.00223208
0.00222653
0.00222174
0.00221696
0.00221125
0.00220335
0.00219173
0.00217448
0.002149
0.00211197
0.002059
0.00198412
0.00187938
0.00173436
0.00153675
0.00127469
0.000939583
0.000562634
0.000243305
6.75879e-05
1.10271e-05
1.33948e-05
0.00261367
0.00260093
0.00258003
0.00255559
0.00253086
0.00250751
0.00248607
0.0024665
0.00244851
0.00243182
0.00241613
0.00240117
0.00238666
0.00237236
0.00235808
0.00234373
0.00232928
0.00231484
0.00230059
0.00228678
0.00227379
0.00226194
0.00225157
0.00224291
0.00223607
0.002231
0.00222751
0.00222521
0.00222354
0.00222174
0.00221883
0.00221356
0.0022044
0.00218941
0.00216597
0.00213084
0.00207966
0.00200642
0.00190296
0.00175856
0.00156046
0.00129648
0.000958062
0.000575455
0.00024946
6.93651e-05
1.13246e-05
1.37817e-05
0.00260506
0.00259191
0.00256999
0.00254384
0.00251677
0.00249061
0.00246615
0.00244354
0.00242269
0.00240343
0.00238558
0.00236889
0.00235314
0.00233811
0.00232362
0.00230958
0.00229592
0.00228279
0.00227033
0.0022588
0.00224848
0.00223965
0.00223256
0.00222735
0.00222404
0.00222252
0.00222252
0.00222361
0.00222521
0.00222653
0.00222658
0.00222409
0.00221751
0.00220487
0.00218349
0.00215024
0.00210073
0.00202884
0.00192623
0.00178189
0.00158277
0.00131647
0.000974622
0.000586741
0.000254826
7.09078e-05
1.15807e-05
1.41027e-05
0.00258987
0.00257637
0.00255359
0.00252592
0.00249671
0.00246797
0.00244072
0.00241534
0.00239193
0.00237047
0.00235085
0.00233287
0.00231629
0.00230088
0.00228651
0.0022731
0.00226059
0.00224911
0.00223879
0.00222983
0.00222248
0.00221693
0.00221334
0.00221176
0.00221214
0.00221429
0.0022179
0.00222252
0.00222751
0.00223208
0.0022352
0.00223559
0.00223168
0.00222135
0.00220209
0.00217071
0.00212273
0.00205193
0.00194978
0.00180503
0.00160441
0.00133544
0.000989974
0.000597014
0.000259656
7.22888e-05
1.18066e-05
1.43685e-05
0.00256835
0.00255457
0.00253103
0.00250203
0.00247092
0.00243989
0.00241016
0.00238238
0.00235686
0.00233368
0.00231271
0.00229381
0.00227676
0.00226138
0.00224752
0.00223512
0.00222413
0.00221466
0.00220681
0.00220074
0.00219662
0.00219456
0.00219465
0.00219684
0.00220103
0.00220696
0.00221429
0.00222252
0.002231
0.0022389
0.00224518
0.00224851
0.00224726
0.00223927
0.00222213
0.00219256
0.00214596
0.00207599
0.00197394
0.00182837
0.00162585
0.00135392
0.00100467
0.000606711
0.000264175
7.35747e-05
1.20132e-05
1.45905e-05
0.00254063
0.00252661
0.00250245
0.0024723
0.00243956
0.00240658
0.00237482
0.00234515
0.00231804
0.00229355
0.00227167
0.00225228
0.00223521
0.00222026
0.00220734
0.00219636
0.00218729
0.00218019
0.00217514
0.00217225
0.00217158
0.00217321
0.0021771
0.00218317
0.00219124
0.00220103
0.00221214
0.00222404
0.00223607
0.00224734
0.00225678
0.00226304
0.00226436
0.00225873
0.0022437
0.00221583
0.00217044
0.00210103
0.00199875
0.00185203
0.00164734
0.00137225
0.0010191
0.000616152
0.000268555
7.48182e-05
1.22094e-05
1.47803e-05
0.00250677
0.00249256
0.00246789
0.00243682
0.00240278
0.0023683
0.00233504
0.00230408
0.00227585
0.00225055
0.00222824
0.00220883
0.00219219
0.00217816
0.00216662
0.0021575
0.00215074
0.00214638
0.00214444
0.00214495
0.00214793
0.00215335
0.00216115
0.00217116
0.00218317
0.00219684
0.00221176
0.00222735
0.00224291
0.00225753
0.00227008
0.00227916
0.00228299
0.00227969
0.00226664
0.0022403
0.00219588
0.00212675
0.00202396
0.00187583
0.00166881
0.00139051
0.0010334
0.000625508
0.000272899
7.60512e-05
1.24008e-05
1.49476e-05
0.00246673
0.00245241
0.00242739
0.00239568
0.00236077
0.00232532
0.00229122
0.00225951
0.00223069
0.00220511
0.0021829
0.00216401
0.00214832
0.0021357
0.00212601
0.00211917
0.00211511
0.0021138
0.00211521
0.00211932
0.00212609
0.00213541
0.00214716
0.00216115
0.0021771
0.00219465
0.00221334
0.00223256
0.00225157
0.00226942
0.00228493
0.00229663
0.00230293
0.00230181
0.00229054
0.00226548
0.00222173
0.0021526
0.00204905
0.00189936
0.00168996
0.00140851
0.00104755
0.000634805
0.000277239
7.7287e-05
1.25905e-05
1.51003e-05
0.00242049
0.00240615
0.00238101
0.00234903
0.00231377
0.00227802
0.00224371
0.00221178
0.00218296
0.0021577
0.00213618
0.00211838
0.00210418
0.00209346
0.00208608
0.00208193
0.00208091
0.00208293
0.00208791
0.00209577
0.00210641
0.00211969
0.00213541
0.00215335
0.00217321
0.00219456
0.00221693
0.00223965
0.00226194
0.00228282
0.00230106
0.00231524
0.00232381
0.0023246
0.00231477
0.00229063
0.0022472
0.00217776
0.00207325
0.00192194
0.00171028
0.0014259
0.00106132
0.000643957
0.000281564
7.85258e-05
1.27786e-05
1.52434e-05
0.00236806
0.00235384
0.00232888
0.00229713
0.00226218
0.00222688
0.00219285
0.00216131
0.00213315
0.00210886
0.00208864
0.0020725
0.00206034
0.00205202
0.00204739
0.00204629
0.0020486
0.00205418
0.0020629
0.00207461
0.00208918
0.00210641
0.00212609
0.00214793
0.00217158
0.00219662
0.00222248
0.00224848
0.00227379
0.0022974
0.00231807
0.00233452
0.00234503
0.00234732
0.00233851
0.00231486
0.00227137
0.00220133
0.00209571
0.00194282
0.00172909
0.00144211
0.00107428
0.000652677
0.000285723
7.97217e-05
1.29602e-05
1.53792e-05
0.0023096
0.00229571
0.00227136
0.00224045
0.00220655
0.0021722
0.00213906
0.0021086
0.00208178
0.00205911
0.00204082
0.00202693
0.00201733
0.00201188
0.0020104
0.00201269
0.00201858
0.0020279
0.00204047
0.0020561
0.00207461
0.00209577
0.00211933
0.00214495
0.00217225
0.00220074
0.00222983
0.0022588
0.00228678
0.00231276
0.00233557
0.0023539
0.00236588
0.00236917
0.00236087
0.00233723
0.00229331
0.00222242
0.00211561
0.00196124
0.00174573
0.00145657
0.00108595
0.000660624
0.000289549
8.0827e-05
1.31286e-05
1.55077e-05
0.00224558
0.0022323
0.00220907
0.00217966
0.00214734
0.00211442
0.00208286
0.00205418
0.00202939
0.00200901
0.00199328
0.0019822
0.00197568
0.00197353
0.00197555
0.00198151
0.0019912
0.00200439
0.00202089
0.00204047
0.0020629
0.00208791
0.00211521
0.00214444
0.00217514
0.00220681
0.00223879
0.00227033
0.00230059
0.00232851
0.00235308
0.00237277
0.00238566
0.00238938
0.00238105
0.00235697
0.00231227
0.00224035
0.00213234
0.00197665
0.00175969
0.00146881
0.00109596
0.000667529
0.00029291
8.18029e-05
1.32785e-05
1.56278e-05
0.00217688
0.00216449
0.00214288
0.00211542
0.002085
0.00205411
0.00202482
0.00199864
0.00197657
0.00195914
0.00194657
0.00193885
0.00193587
0.00193741
0.00194324
0.0019531
0.00196674
0.00198392
0.00200439
0.0020279
0.00205418
0.00208293
0.0021138
0.00214638
0.00218019
0.00221466
0.00224911
0.00228279
0.00231484
0.0023443
0.00237009
0.00239056
0.00240375
0.00240733
0.00239848
0.00237357
0.00232783
0.00225477
0.00214561
0.00198881
0.00177076
0.00147863
0.0011041
0.000673242
0.000295724
8.26254e-05
1.34063e-05
1.57379e-05
0.00210463
0.00209336
0.00207353
0.00204818
0.00202013
0.00199192
0.00196558
0.00194261
0.00192394
0.00191008
0.00190123
0.00189737
0.00189834
0.00190391
0.00191382
0.00192778
0.00194551
0.00196674
0.0019912
0.00201859
0.0020486
0.00208091
0.00211511
0.00215074
0.00218729
0.00222413
0.00226059
0.00229592
0.00232928
0.00235979
0.0023862
0.00240683
0.00241975
0.00242269
0.0024129
0.00238688
0.00233994
0.00226572
0.00215552
0.00199784
0.00177902
0.00148606
0.00111039
0.000677739
0.000297974
8.32878e-05
1.35109e-05
1.58367e-05
0.00202961
0.00201944
0.00200148
0.00197856
0.00195343
0.00192854
0.00190584
0.00188673
0.00187209
0.00186239
0.00185779
0.00185822
0.00186352
0.00187342
0.00188764
0.00190586
0.00192778
0.0019531
0.00198151
0.00201269
0.00204629
0.00208193
0.00211917
0.0021575
0.00219636
0.00223512
0.0022731
0.00230958
0.00234373
0.00237472
0.00240116
0.00242139
0.00243353
0.00243541
0.00242439
0.00239707
0.00234888
0.00227354
0.00216243
0.00200408
0.00178477
0.00149133
0.00111496
0.000681099
0.000299687
8.37966e-05
1.35929e-05
1.5923e-05
0.00195227
0.00194324
0.00192739
0.00190733
0.00188568
0.00186472
0.00184629
0.00183166
0.00182164
0.00181663
0.00181673
0.00182186
0.00183182
0.00184631
0.00186502
0.00188764
0.00191382
0.00194324
0.00197555
0.0020104
0.00204739
0.00208609
0.00212601
0.00216662
0.00220734
0.00224752
0.00228651
0.00232362
0.00235809
0.00238898
0.00241489
0.00243421
0.00244516
0.00244568
0.00243324
0.00240453
0.00235509
0.0022787
0.00216681
0.00200796
0.00178838
0.00149473
0.00111803
0.00068344
0.00030091
8.41645e-05
1.36538e-05
1.5996e-05
0.00187323
0.00186551
0.00185208
0.00183533
0.00181769
0.00180125
0.00178766
0.00177808
0.00177319
0.00177333
0.00177855
0.00178872
0.00180361
0.00182292
0.00184631
0.00187342
0.00190391
0.00193741
0.00197354
0.00201188
0.00205202
0.00209346
0.0021357
0.00217816
0.00222026
0.00226138
0.00230088
0.00233811
0.00237236
0.00240261
0.00242748
0.00244547
0.00245491
0.00245385
0.00243986
0.00240973
0.00235905
0.00228168
0.00216911
0.00200988
0.00179017
0.00149651
0.00111976
0.000684846
0.000301677
8.43994e-05
1.36945e-05
1.60536e-05
0.00179342
0.00178718
0.00177648
0.00176347
0.00175032
0.0017389
0.00173067
0.00172661
0.00172731
0.001733
0.00174368
0.0017592
0.00177929
0.00180361
0.00183182
0.00186352
0.00189834
0.00193587
0.00197568
0.00201733
0.00206034
0.00210418
0.00214833
0.0021922
0.00223521
0.00227677
0.00231629
0.00235314
0.00238667
0.00241576
0.00243915
0.00245545
0.00246311
0.0024603
0.00244467
0.00241307
0.00236116
0.00228285
0.00216964
0.00201009
0.00179033
0.00149679
0.0011202
0.00068533
0.000301984
8.44995e-05
1.37141e-05
1.60931e-05
0.00171388
0.00170928
0.00170159
0.00169268
0.00168443
0.00167847
0.00167601
0.00167788
0.00168453
0.00169611
0.00171257
0.0017337
0.0017592
0.00178872
0.00182186
0.00185822
0.00189737
0.00193886
0.00198221
0.00202693
0.0020725
0.00211838
0.00216401
0.00220883
0.00225228
0.00229381
0.00233287
0.00236889
0.00240117
0.00242865
0.00245016
0.00246447
0.00247013
0.00246541
0.00244803
0.0024149
0.00236172
0.00228243
0.00216857
0.00200869
0.0017889
0.00149555
0.0011193
0.000684828
0.000301791
8.44518e-05
1.37104e-05
1.61104e-05
0.00163571
0.00163289
0.00162843
0.00162391
0.00162088
0.00162069
0.00162434
0.00163245
0.00164536
0.00166311
0.0016856
0.00171257
0.00174368
0.00177855
0.00181673
0.00185779
0.00190123
0.00194657
0.00199328
0.00204082
0.00208864
0.00213619
0.0021829
0.00222824
0.00227168
0.00231272
0.00235085
0.00238558
0.00241613
0.00244156
0.00246085
0.00247287
0.00247631
0.00246951
0.00245024
0.00241546
0.0023609
0.00228053
0.00216592
0.00200563
0.00178577
0.00149265
0.00111689
0.0006832
0.000301024
8.42335e-05
1.36794e-05
1.61001e-05
0.00156006
0.00155909
0.00155802
0.00155807
0.00156048
0.00156629
0.00157626
0.00159085
0.00161023
0.00163439
0.00166311
0.00169611
0.001733
0.00177333
0.00181663
0.00186239
0.00191008
0.00195914
0.00200901
0.00205911
0.00210886
0.00215771
0.00220511
0.00225055
0.00229356
0.00233368
0.00237047
0.00240344
0.00243182
0.00245482
0.00247155
0.00248102
0.002482
0.0024729
0.00245155
0.00241493
0.00235881
0.00227718
0.00216163
0.00200079
0.00178076
0.00148788
0.00111275
0.000680269
0.000299587
8.38162e-05
1.36164e-05
1.60565e-05
0.00148805
0.00148897
0.00149135
0.00149605
0.00150399
0.00151591
0.00153233
0.00155352
0.00157953
0.00161023
0.00164536
0.00168453
0.00172731
0.00177319
0.00182164
0.00187209
0.00192394
0.00197658
0.00202939
0.00208178
0.00213315
0.00218296
0.00223069
0.00227586
0.00231805
0.00235686
0.00239193
0.00242269
0.00244852
0.00246874
0.00248263
0.00248927
0.00248754
0.0024759
0.00245221
0.00241349
0.00235553
0.00227237
0.00215564
0.00199402
0.00177367
0.001481
0.00110666
0.00067585
0.000297385
8.31718e-05
1.35167e-05
1.59735e-05
0.00142071
0.00142351
0.00142932
0.00143866
0.0014521
0.00147011
0.00149299
0.00152082
0.00155352
0.00159085
0.00163245
0.00167788
0.00172661
0.00177808
0.00183166
0.00188673
0.00194261
0.00199865
0.00205419
0.0021086
0.00216132
0.00221178
0.00225951
0.00230408
0.00234515
0.00238239
0.00241534
0.00244354
0.0024665
0.00248369
0.00249448
0.00249807
0.00249336
0.00247888
0.00245254
0.00241138
0.00235123
0.00226617
0.00214791
0.0019852
0.00176431
0.00147179
0.00109838
0.000669772
0.000294333
8.22746e-05
1.33759e-05
1.58451e-05
0.00135902
0.00136365
0.00137277
0.0013866
0.00140539
0.00142937
0.00145859
0.00149298
0.00153233
0.00157626
0.00162434
0.00167601
0.00173067
0.00178766
0.00184629
0.00190584
0.00196558
0.00202482
0.00208286
0.00213906
0.00219286
0.00224371
0.00229122
0.00233504
0.00237482
0.00241017
0.00244072
0.00246615
0.00248608
0.00250008
0.00250761
0.00250793
0.0025
0.00248238
0.00245302
0.00240901
0.00234622
0.00225879
0.00213853
0.00197431
0.00175259
0.00146009
0.00108771
0.000661864
0.000290339
8.10978e-05
1.31892e-05
1.56636e-05
0.00130385
0.00131018
0.00132243
0.0013405
0.00136438
0.00139404
0.00142937
0.00147011
0.00151591
0.00156629
0.00162069
0.00167847
0.0017389
0.00180125
0.00186472
0.00192854
0.00199192
0.00205411
0.00211442
0.0021722
0.00222688
0.00227803
0.00232532
0.0023683
0.00240658
0.00243989
0.00246798
0.00249061
0.00250752
0.00251833
0.00252255
0.00251949
0.00250816
0.00248713
0.00245438
0.00240706
0.0023411
0.00225072
0.00212785
0.00196154
0.00173849
0.00144576
0.00107442
0.000651907
0.000285284
7.96045e-05
1.29499e-05
1.54169e-05
0.00125595
0.00126384
0.00127893
0.00130088
0.00132944
0.00136438
0.00140539
0.0014521
0.00150399
0.00156048
0.00162088
0.00168443
0.00175032
0.00181769
0.00188568
0.00195343
0.00202013
0.002085
0.00214734
0.00220655
0.00226218
0.00231377
0.00236077
0.00240279
0.00243956
0.00247092
0.00249671
0.00251677
0.00253087
0.00253868
0.00253975
0.00253337
0.00251858
0.00249397
0.00245755
0.00240649
0.00233679
0.00224278
0.00211654
0.00194734
0.00172226
0.00142876
0.0010583
0.000639639
0.00027901
7.77457e-05
1.26485e-05
1.50871e-05
0.00121604
0.00122527
0.00124285
0.0012682
0.00130088
0.0013405
0.0013866
0.00143866
0.00149605
0.00155807
0.0016239
0.00169268
0.00176347
0.00183533
0.00190733
0.00197856
0.00204818
0.00211542
0.00217966
0.00224045
0.00229713
0.00234903
0.00239568
0.00243682
0.0024723
0.00250203
0.00252592
0.00254385
0.00255559
0.00256085
0.00255912
0.00254973
0.00253168
0.00250355
0.00246336
0.00240829
0.00233439
0.00223609
0.00210562
0.00193257
0.00170446
0.00140939
0.00103936
0.000624957
0.000271438
7.54943e-05
1.22788e-05
1.46579e-05
0.00118478
0.00119511
0.00121471
0.00124285
0.00127893
0.00132243
0.00137277
0.00142932
0.00149135
0.00155802
0.00162843
0.00170159
0.00177648
0.00185207
0.00192738
0.00200148
0.00207353
0.00214288
0.00220906
0.00227136
0.00232888
0.00238101
0.00242739
0.00246789
0.00250245
0.00253103
0.00255359
0.00256999
0.00258003
0.00258336
0.00257947
0.00256763
0.00254681
0.00251556
0.00247184
0.00241283
0.0023346
0.00223163
0.00209632
0.00191855
0.00168642
0.00138884
0.00101861
0.000608567
0.000262922
7.29546e-05
1.18567e-05
1.41419e-05
0.00116293
0.00117405
0.00119511
0.00122527
0.00126384
0.00131018
0.00136364
0.00142351
0.00148897
0.00155909
0.00163288
0.00170928
0.00178718
0.00186551
0.00194324
0.00201944
0.00209336
0.00216449
0.0022323
0.00229571
0.00235383
0.00240614
0.00245241
0.00249256
0.00252661
0.00255456
0.00257637
0.00259191
0.00260093
0.00260308
0.00259779
0.00258429
0.00256148
0.00252786
0.00248134
0.00241903
0.00233698
0.0022297
0.0020897
0.00190715
0.00167069
0.00137013
0.000999191
0.000593002
0.0002548
7.05286e-05
1.14497e-05
1.36236e-05
0.0011514
0.00116293
0.00118478
0.00121604
0.00125595
0.00130385
0.00135902
0.00142071
0.00148804
0.00156006
0.00163571
0.00171387
0.00179342
0.00187323
0.00195226
0.00202961
0.00210463
0.00217688
0.00224558
0.0023096
0.00236806
0.00242049
0.00246673
0.00250676
0.00254063
0.00256835
0.00258987
0.00260506
0.00261366
0.00261529
0.00260936
0.00259504
0.00257122
0.00253632
0.0024882
0.00242393
0.00233953
0.00222949
0.0020864
0.00190058
0.00166108
0.00135832
0.000986691
0.000582894
0.000249516
6.89496e-05
1.1183e-05
1.3274e-05
)
;

boundaryField
{
    inlet
    {
        type            cyclic;
    }
    outlet
    {
        type            cyclic;
    }
    walls
    {
        type            kLowReWallFunction;
        value           nonuniform List<scalar> 
96
(
7.25345e-15
1.80274e-13
1.16026e-12
4.16689e-12
1.10806e-11
2.45182e-11
4.77506e-11
8.42696e-11
1.36852e-10
2.06426e-10
2.91433e-10
3.88096e-10
4.91409e-10
5.96287e-10
6.98391e-10
7.94492e-10
8.82512e-10
9.61454e-10
1.03115e-09
1.09149e-09
1.14287e-09
1.18629e-09
1.22318e-09
1.25516e-09
1.28371e-09
1.31003e-09
1.33494e-09
1.35879e-09
1.38157e-09
1.40302e-09
1.42283e-09
1.44071e-09
1.45645e-09
1.4698e-09
1.4804e-09
1.48769e-09
1.49088e-09
1.48898e-09
1.48093e-09
1.46569e-09
1.44225e-09
1.40945e-09
1.36547e-09
1.30774e-09
1.23451e-09
1.14924e-09
1.06667e-09
1.01271e-09
1.01269e-09
1.06666e-09
1.14923e-09
1.23451e-09
1.30775e-09
1.36547e-09
1.40946e-09
1.44226e-09
1.4657e-09
1.48094e-09
1.48899e-09
1.49088e-09
1.4877e-09
1.48041e-09
1.46981e-09
1.45645e-09
1.44072e-09
1.42283e-09
1.40302e-09
1.38157e-09
1.3588e-09
1.33494e-09
1.31003e-09
1.28371e-09
1.25516e-09
1.22319e-09
1.18629e-09
1.14287e-09
1.09149e-09
1.03115e-09
9.61455e-10
8.82513e-10
7.94493e-10
6.98392e-10
5.96288e-10
4.9141e-10
3.88096e-10
2.91433e-10
2.06426e-10
1.36852e-10
8.42697e-11
4.77506e-11
2.45182e-11
1.10806e-11
4.1669e-12
1.16026e-12
1.80274e-13
7.25345e-15
)
;
    }
    symPlanes
    {
        type            symmetry;
    }
}


// ************************************************************************* //
