/*--------------------------------*- C++ -*----------------------------------*\
| =========                 |                                                 |
| \\      /  F ield         | OpenFOAM: The Open Source CFD Toolbox           |
|  \\    /   O peration     | Version:  2506                                  |
|   \\  /    A nd           | Website:  www.openfoam.com                      |
|    \\/     M anipulation  |                                                 |
\*---------------------------------------------------------------------------*/
FoamFile
{
    version     2.0;
    format      ascii;
    arch        "LSB;label=32;scalar=64";
    class       volScalarField;
    location    "2137";
    object      nut;
}
// * * * * * * * * * * * * * * * * * * * * * * * * * * * * * * * * * * * * * //

dimensions      [0 2 -1 0 0 0 0];

internalField   nonuniform List<scalar> 
2304
(
5.38381e-09
5.52564e-09
5.73585e-09
5.94517e-09
6.11923e-09
6.25302e-09
6.35308e-09
6.42669e-09
6.47876e-09
6.51242e-09
6.53011e-09
6.53427e-09
6.52727e-09
6.51125e-09
6.48785e-09
6.45827e-09
6.42324e-09
6.38319e-09
6.33853e-09
6.28983e-09
6.2377e-09
6.18263e-09
6.12459e-09
6.06266e-09
5.99478e-09
5.91782e-09
5.82777e-09
5.71998e-09
5.58975e-09
5.43284e-09
5.24579e-09
5.02555e-09
4.76804e-09
4.47003e-09
4.12999e-09
3.74884e-09
3.33112e-09
2.88621e-09
2.4287e-09
1.97716e-09
1.55122e-09
1.16747e-09
8.36412e-10
5.62183e-10
3.44685e-10
1.81851e-10
7.16682e-11
1.43734e-11
2.68781e-08
2.75199e-08
2.84986e-08
2.95125e-08
3.03997e-08
3.11222e-08
3.16956e-08
3.21426e-08
3.24799e-08
3.27188e-08
3.28697e-08
3.2944e-08
3.29528e-08
3.29057e-08
3.28083e-08
3.26623e-08
3.24661e-08
3.22159e-08
3.19102e-08
3.15518e-08
3.11491e-08
3.07155e-08
3.02664e-08
2.98131e-08
2.93555e-08
2.8887e-08
2.83937e-08
2.78543e-08
2.72429e-08
2.65323e-08
2.5698e-08
2.47188e-08
2.35664e-08
2.22124e-08
2.063e-08
1.87976e-08
1.67095e-08
1.43908e-08
1.19108e-08
9.38721e-09
6.97332e-09
4.82676e-09
3.06877e-09
1.75457e-09
8.68435e-10
3.42197e-10
1.01488e-10
7.16681e-11
4.92568e-07
5.03441e-07
5.20137e-07
5.37608e-07
5.53099e-07
5.65899e-07
5.76193e-07
5.84316e-07
5.9052e-07
5.94988e-07
5.97896e-07
5.99437e-07
5.99803e-07
5.99152e-07
5.97568e-07
5.95059e-07
5.91567e-07
5.86998e-07
5.81305e-07
5.74532e-07
5.66847e-07
5.58525e-07
5.49905e-07
5.41381e-07
5.32921e-07
5.24426e-07
5.15675e-07
5.06299e-07
4.95822e-07
4.83723e-07
4.69527e-07
4.52821e-07
4.33034e-07
4.0956e-07
3.81781e-07
3.49125e-07
3.11279e-07
2.68514e-07
2.22017e-07
1.74044e-07
1.27721e-07
8.64342e-08
5.27354e-08
2.78597e-08
1.15879e-08
2.9021e-09
3.42196e-10
1.81851e-10
3.58151e-06
3.65007e-06
3.75526e-06
3.86525e-06
3.96289e-06
4.04385e-06
4.10926e-06
4.16116e-06
4.20108e-06
4.23013e-06
4.2494e-06
4.2601e-06
4.26339e-06
4.26023e-06
4.25108e-06
4.23592e-06
4.21423e-06
4.18531e-06
4.14873e-06
4.10475e-06
4.05447e-06
3.99978e-06
3.94315e-06
3.88739e-06
3.83237e-06
3.77772e-06
3.72211e-06
3.66318e-06
3.59774e-06
3.52213e-06
3.4328e-06
3.32653e-06
3.19891e-06
3.04508e-06
2.85961e-06
2.63691e-06
2.37271e-06
2.06658e-06
1.72491e-06
1.36286e-06
1.00387e-06
6.75562e-07
4.01332e-07
1.95937e-07
6.68242e-08
1.15879e-08
8.68434e-10
3.44685e-10
1.32267e-05
1.34199e-05
1.37161e-05
1.40257e-05
1.43015e-05
1.45319e-05
1.47199e-05
1.48709e-05
1.49888e-05
1.50765e-05
1.51368e-05
1.51729e-05
1.51882e-05
1.5185e-05
1.51644e-05
1.51257e-05
1.50669e-05
1.49852e-05
1.48788e-05
1.47483e-05
1.4597e-05
1.44314e-05
1.426e-05
1.40915e-05
1.39275e-05
1.3768e-05
1.361e-05
1.34464e-05
1.32673e-05
1.30602e-05
1.28118e-05
1.25083e-05
1.21332e-05
1.16665e-05
1.10839e-05
1.03575e-05
9.46063e-06
8.37698e-06
7.11274e-06
5.70831e-06
4.24346e-06
2.83321e-06
1.60833e-06
6.99749e-07
1.95937e-07
2.78597e-08
1.75457e-09
5.62183e-10
3.10557e-05
3.13748e-05
3.18656e-05
3.23803e-05
3.28423e-05
3.32339e-05
3.356e-05
3.38278e-05
3.40424e-05
3.42075e-05
3.43272e-05
3.44064e-05
3.44505e-05
3.4463e-05
3.44451e-05
3.43942e-05
3.43051e-05
3.4171e-05
3.39869e-05
3.3753e-05
3.34766e-05
3.31713e-05
3.28562e-05
3.25486e-05
3.2257e-05
3.19847e-05
3.17277e-05
3.14737e-05
3.12026e-05
3.0888e-05
3.04975e-05
2.99903e-05
2.93304e-05
2.84676e-05
2.73361e-05
2.58573e-05
2.39468e-05
2.15333e-05
1.85863e-05
1.51477e-05
1.13609e-05
7.51065e-06
4.06714e-06
1.60833e-06
4.01332e-07
5.27354e-08
3.06877e-09
8.36412e-10
5.52394e-05
5.55766e-05
5.60878e-05
5.66137e-05
5.70826e-05
5.74887e-05
5.78426e-05
5.81503e-05
5.84118e-05
5.86261e-05
5.8794e-05
5.89188e-05
5.90046e-05
5.90536e-05
5.90636e-05
5.90277e-05
5.89346e-05
5.87715e-05
5.85304e-05
5.82131e-05
5.78349e-05
5.74225e-05
5.70093e-05
5.66272e-05
5.62994e-05
5.60378e-05
5.58404e-05
5.56905e-05
5.55564e-05
5.53926e-05
5.51357e-05
5.45006e-05
5.35713e-05
5.22775e-05
5.04917e-05
4.80599e-05
4.48117e-05
4.05881e-05
3.52904e-05
2.89463e-05
2.17717e-05
1.42708e-05
7.51065e-06
2.83321e-06
6.75561e-07
8.64341e-08
4.82676e-09
1.16747e-09
8.22008e-05
8.2645e-05
8.33017e-05
8.3951e-05
8.45071e-05
8.49799e-05
8.53962e-05
8.57681e-05
8.6095e-05
8.6373e-05
8.6601e-05
8.67817e-05
8.69192e-05
8.70151e-05
8.70653e-05
8.70584e-05
8.69767e-05
8.68004e-05
8.65173e-05
8.61305e-05
8.56626e-05
8.51542e-05
8.46555e-05
8.42136e-05
8.38639e-05
8.36226e-05
8.34832e-05
8.34137e-05
8.33576e-05
8.32346e-05
8.29408e-05
8.23381e-05
8.12526e-05
7.9481e-05
7.67905e-05
7.29399e-05
6.77207e-05
6.1016e-05
5.28692e-05
4.3534e-05
3.3403e-05
2.17717e-05
1.13609e-05
4.24346e-06
1.00387e-06
1.27721e-07
6.97331e-09
1.55122e-09
0.000112839
0.000113439
0.000114306
0.000115127
0.00011579
0.000116328
0.000116794
0.000117216
0.000117598
0.000117933
0.00011822
0.00011846
0.000118658
0.000118815
0.000118925
0.000118972
0.000118929
0.000118771
0.000118481
0.000118062
0.000117548
0.000116994
0.000116468
0.000116033
0.000115731
0.000115575
0.000115544
0.000115573
0.000115562
0.000115375
0.000114844
0.000113781
0.000111924
0.000108998
0.000104717
9.88087e-05
9.10604e-05
8.13878e-05
6.993e-05
5.71117e-05
4.3534e-05
2.89463e-05
1.51477e-05
5.70831e-06
1.36286e-06
1.74044e-07
9.3872e-09
1.97716e-09
0.000146884
0.000147685
0.000148822
0.000149861
0.000150645
0.000151233
0.000151719
0.000152159
0.000152565
0.000152935
0.000153265
0.000153557
0.000153816
0.000154043
0.000154229
0.00015435
0.000154376
0.000154272
0.000154019
0.000153626
0.000153137
0.000152626
0.000152174
0.000151854
0.000151707
0.000151727
0.000151854
0.000151973
0.000151911
0.000151451
0.000150346
0.000148333
0.000145121
0.000140409
0.000133902
0.000125343
0.000114557
0.000101515
8.64942e-05
6.993e-05
5.28692e-05
3.52904e-05
1.85862e-05
7.11273e-06
1.7249e-06
2.22017e-07
1.19108e-08
2.42869e-09
0.000183661
0.000184712
0.00018619
0.000187507
0.000188442
0.000189076
0.000189556
0.000189975
0.000190369
0.000190739
0.000191086
0.000191414
0.000191727
0.000192025
0.000192296
0.000192511
0.000192633
0.000192626
0.00019247
0.000192184
0.000191828
0.000191487
0.000191252
0.000191192
0.000191325
0.000191608
0.000191914
0.000192051
0.000191752
0.0001907
0.000188564
0.00018503
0.000179808
0.000172617
0.000163205
0.000151388
0.000137119
0.000120589
0.000101515
8.13878e-05
6.1016e-05
4.0588e-05
2.15333e-05
8.37697e-06
2.06658e-06
2.68514e-07
1.43908e-08
2.88621e-09
0.000222656
0.000223997
0.00022588
0.00022754
0.000228673
0.000229366
0.000229822
0.000230187
0.000230525
0.000230856
0.000231187
0.000231523
0.000231873
0.000232234
0.000232592
0.000232915
0.000233164
0.000233304
0.000233324
0.000233258
0.000233173
0.000233163
0.00023331
0.000233657
0.000234176
0.000234755
0.000235181
0.000235163
0.000234345
0.000232291
0.00022858
0.000222868
0.000214912
0.000204514
0.00019153
0.000175903
0.000157738
0.000137119
0.000114557
9.10604e-05
6.77207e-05
4.48117e-05
2.39468e-05
9.46062e-06
2.3727e-06
3.11279e-07
1.67095e-08
3.33112e-09
0.000263471
0.000265127
0.000267463
0.000269529
0.000270913
0.000271696
0.00027213
0.000272418
0.000272667
0.000272922
0.000273201
0.00027352
0.000273888
0.000274306
0.000274758
0.000275212
0.000275634
0.000275996
0.000276304
0.000276599
0.000276955
0.00027745
0.000278135
0.000279
0.000279939
0.000280749
0.000281133
0.000280653
0.000278924
0.000275409
0.000269582
0.000261027
0.000249593
0.000235281
0.000218141
0.000198295
0.000175903
0.000151388
0.000125343
9.88086e-05
7.29399e-05
4.80599e-05
2.58573e-05
1.03574e-05
2.6369e-06
3.49124e-07
1.87975e-08
3.74883e-09
0.000305782
0.000307763
0.000310578
0.000313098
0.000314793
0.000315713
0.000316147
0.000316357
0.000316499
0.000316653
0.00031686
0.000317146
0.000317529
0.000318013
0.000318586
0.000319224
0.000319897
0.000320596
0.000321337
0.000322164
0.000323136
0.000324293
0.000325619
0.000327014
0.000328297
0.000329101
0.000329105
0.000327694
0.000324393
0.000318821
0.000310425
0.000298628
0.000283152
0.000264308
0.000242532
0.000218141
0.00019153
0.000163205
0.000133902
0.000104717
7.67905e-05
5.04917e-05
2.73361e-05
1.10839e-05
2.8596e-06
3.8178e-07
2.06299e-08
4.12999e-09
0.000349315
0.000351612
0.00035491
0.000357915
0.000359976
0.000361094
0.000361574
0.000361732
0.00036178
0.000361838
0.000361978
0.000362247
0.000362674
0.000363269
0.000364032
0.000364948
0.000366001
0.000367193
0.000368544
0.000370079
0.000371818
0.000373725
0.000375704
0.000377483
0.00037884
0.000379156
0.000377986
0.000374954
0.00036846
0.000359689
0.00034828
0.000333921
0.000314626
0.000291038
0.000264308
0.000235281
0.000204514
0.000172617
0.000140409
0.000108998
7.94809e-05
5.22775e-05
2.84675e-05
1.16665e-05
3.04508e-06
4.0956e-07
2.22124e-08
4.47003e-09
0.000393839
0.00039643
0.000400194
0.000403698
0.000406175
0.000407559
0.000408157
0.000408325
0.000408331
0.000408345
0.000408474
0.000408792
0.000409345
0.000410156
0.000411236
0.000412587
0.000414198
0.000416072
0.000418215
0.0004206
0.000423183
0.000425811
0.000428275
0.000430084
0.000430733
0.000429607
0.000424694
0.000417836
0.000408634
0.000396682
0.000381654
0.000363318
0.000341569
0.000314626
0.000283152
0.000249593
0.000214912
0.000179808
0.000145121
0.000111924
8.12525e-05
5.35713e-05
2.93304e-05
1.21332e-05
3.19891e-06
4.33033e-07
2.35664e-08
4.76804e-09
0.000439168
0.00044202
0.000446214
0.000450216
0.000453149
0.000454878
0.000455692
0.000455977
0.000456052
0.000456138
0.000456386
0.000456896
0.000457739
0.000458947
0.00046054
0.000462537
0.000464926
0.000467668
0.000470749
0.000474052
0.000477381
0.000480472
0.000482748
0.000483859
0.000480786
0.000475667
0.000468535
0.000458956
0.000446538
0.000430941
0.000411925
0.000389378
0.000363318
0.000333921
0.000298628
0.000261027
0.000222868
0.00018503
0.000148333
0.000113781
8.2338e-05
5.45005e-05
2.99903e-05
1.25083e-05
3.32652e-06
4.52821e-07
2.47188e-08
5.02555e-09
0.00048514
0.000488212
0.000492794
0.000497278
0.000500707
0.000502872
0.000504034
0.000504598
0.000504929
0.000505299
0.000505895
0.000506842
0.000508231
0.00051011
0.000512477
0.000515346
0.00051875
0.000522495
0.000526495
0.000530561
0.000534113
0.000536819
0.000536434
0.00053294
0.000527717
0.000520365
0.000510479
0.000497664
0.000481583
0.00046199
0.000438764
0.000411925
0.000381654
0.00034828
0.000310425
0.000269582
0.00022858
0.000188564
0.000150346
0.000114844
8.29408e-05
5.51357e-05
3.04974e-05
1.28118e-05
3.4328e-06
4.69526e-07
2.5698e-08
5.24579e-09
0.000531607
0.000534859
0.00053978
0.000544733
0.000548702
0.000551415
0.000553103
0.000554181
0.000555055
0.000556034
0.000557334
0.000559073
0.000561348
0.000564257
0.000567707
0.000571614
0.000576101
0.000580775
0.000585204
0.000589153
0.000591117
0.000589276
0.000585891
0.000580643
0.000573155
0.000563031
0.000549889
0.000533397
0.000513311
0.000489504
0.00046199
0.000430941
0.000396682
0.000359689
0.000318821
0.000275408
0.000232291
0.0001907
0.000151451
0.000115375
8.32345e-05
5.53926e-05
3.08879e-05
1.30602e-05
3.52213e-06
4.83723e-07
2.65323e-08
5.43283e-09
0.000578434
0.000581828
0.000587048
0.000592464
0.000597035
0.000600445
0.000602896
0.000604812
0.000606623
0.000608668
0.00061116
0.000614156
0.000617673
0.000621883
0.000626583
0.000631499
0.000636399
0.000641221
0.000644282
0.000644156
0.000642635
0.000639455
0.000634276
0.000626735
0.00061645
0.000603053
0.000586221
0.000565716
0.000541409
0.000513311
0.000481583
0.000446538
0.000408634
0.00036846
0.000324393
0.000278924
0.000234345
0.000191752
0.000151911
0.000115562
8.33576e-05
5.55564e-05
3.12026e-05
1.32673e-05
3.59774e-06
4.95821e-07
2.72429e-08
5.58975e-09
0.000625491
0.000628999
0.000634491
0.000640388
0.000645657
0.000649964
0.000653494
0.000656667
0.000659921
0.000663615
0.000667788
0.000672411
0.000677316
0.000682432
0.000687805
0.000693188
0.000695724
0.000697222
0.000697542
0.000696406
0.000693491
0.000688462
0.000680951
0.000670585
0.000657006
0.000639905
0.00061905
0.000594318
0.000565716
0.000533397
0.000497664
0.000458956
0.000417836
0.000374954
0.000327694
0.000280653
0.000235163
0.000192051
0.000151973
0.000115573
8.34136e-05
5.56905e-05
3.14736e-05
1.34464e-05
3.66318e-06
5.06298e-07
2.78542e-08
5.71998e-09
0.000672659
0.000676265
0.000682031
0.000688463
0.000694579
0.000700058
0.000705066
0.000710004
0.000715312
0.000721125
0.000726911
0.000732731
0.000738413
0.000742243
0.000745692
0.000748522
0.000750479
0.000751244
0.000750495
0.000747894
0.000743075
0.000735665
0.000725293
0.000711608
0.000694309
0.000673173
0.000648084
0.00061905
0.000586221
0.000549889
0.000510479
0.000468535
0.000424693
0.000377986
0.000329105
0.000281133
0.000235181
0.000191914
0.000151854
0.000115544
8.34831e-05
5.58404e-05
3.17277e-05
1.361e-05
3.72211e-06
5.15675e-07
2.83937e-08
5.82776e-09
0.000719827
0.00072354
0.000729621
0.000736703
0.000743893
0.000750901
0.000757868
0.00076518
0.00077301
0.000780386
0.00078598
0.000790374
0.000794563
0.0007984
0.000801642
0.000804012
0.000805197
0.000804841
0.000802573
0.000798009
0.000790761
0.000780449
0.000766727
0.000749299
0.000727951
0.000702571
0.000673173
0.000639905
0.000603053
0.000563031
0.000520365
0.000475667
0.000429606
0.000379156
0.000329101
0.000280749
0.000234755
0.000191607
0.000151727
0.000115575
8.36226e-05
5.60377e-05
3.19847e-05
1.3768e-05
3.77771e-06
5.24426e-07
2.8887e-08
5.91782e-09
0.000766914
0.000770773
0.000777273
0.000785207
0.000793799
0.00080278
0.000812289
0.000822511
0.000832148
0.000837371
0.00084231
0.000846982
0.000851253
0.000854924
0.000857722
0.000859321
0.000859359
0.000857444
0.00085317
0.000846131
0.000835939
0.000822244
0.000804753
0.000783256
0.00075765
0.000727951
0.000694309
0.000657006
0.00061645
0.000573155
0.000527717
0.000480786
0.000430733
0.000378839
0.000328296
0.000279939
0.000234176
0.000191325
0.000151707
0.000115731
8.38639e-05
5.62993e-05
3.2257e-05
1.39274e-05
3.83237e-06
5.3292e-07
2.93555e-08
5.99477e-09
0.000813901
0.000817996
0.000825108
0.000834219
0.000844664
0.00085614
0.000868843
0.00088143
0.000888107
0.000893815
0.000899133
0.000903971
0.000908152
0.000911426
0.000913477
0.000913935
0.000912401
0.000908451
0.000901668
0.000891651
0.000878043
0.000860552
0.00083897
0.000813197
0.000783256
0.000749299
0.000711608
0.000670585
0.000626735
0.000580643
0.00053294
0.000483859
0.000430084
0.000377483
0.000327014
0.000279
0.000233657
0.000191191
0.000151854
0.000116033
8.42136e-05
5.66271e-05
3.25486e-05
1.40915e-05
3.88739e-06
5.4138e-07
2.98131e-08
6.06266e-09
0.000860915
0.000865404
0.000873447
0.000884213
0.000897101
0.000911765
0.000927621
0.0009377
0.000944413
0.000950599
0.000956183
0.000961018
0.000964876
0.000967456
0.000968398
0.000967296
0.000963723
0.000957248
0.000947463
0.000934004
0.000916576
0.000894971
0.000869094
0.00083897
0.000804753
0.000766727
0.000725293
0.000680951
0.000634276
0.000585891
0.000536434
0.000482748
0.000428275
0.000375704
0.000325619
0.000278135
0.000233309
0.000191252
0.000152174
0.000116468
8.46554e-05
5.70092e-05
3.28561e-05
1.426e-05
3.94315e-06
5.49905e-07
3.02663e-08
6.12458e-09
0.000908375
0.000913503
0.000922941
0.000935994
0.0009521
0.000970606
0.000985748
0.000993652
0.00100092
0.00100747
0.00101315
0.00101775
0.00102099
0.00102252
0.00102193
0.00101881
0.00101272
0.00100323
0.000989994
0.000972697
0.000951137
0.000925219
0.000894971
0.000860552
0.000822244
0.000780449
0.000735665
0.000688462
0.000639455
0.000589276
0.000536819
0.000480472
0.000425811
0.000373725
0.000324293
0.00027745
0.000233163
0.000191487
0.000152625
0.000116994
8.51541e-05
5.74224e-05
3.31713e-05
1.44313e-05
3.99977e-06
5.58524e-07
3.07154e-08
6.18262e-09
0.000957205
0.000963295
0.000974721
0.000990808
0.00101078
0.0010318
0.00104122
0.00104971
0.00105741
0.00106413
0.00106967
0.00107374
0.001076
0.00107606
0.0010735
0.00106788
0.00105879
0.00104585
0.00102877
0.00100733
0.000981441
0.000951137
0.000916576
0.000878043
0.000835939
0.000790761
0.000743075
0.000693491
0.000642635
0.000591117
0.000534113
0.000477381
0.000423183
0.000371818
0.000323136
0.000276954
0.000233173
0.000191828
0.000153137
0.000117548
8.56626e-05
5.78348e-05
3.34765e-05
1.45969e-05
4.05446e-06
5.66846e-07
3.11491e-08
6.23769e-09
0.00100904
0.00101643
0.00103051
0.00105014
0.00107286
0.00108708
0.00109674
0.00110568
0.00111361
0.00112026
0.00112535
0.00112852
0.00112939
0.00112753
0.00112252
0.00111393
0.00110139
0.00108461
0.00106338
0.00103761
0.00100733
0.000972696
0.000934004
0.000891651
0.000846131
0.000798009
0.000747894
0.000696405
0.000644156
0.000589152
0.000530561
0.000474051
0.0004206
0.000370079
0.000322164
0.000276599
0.000233257
0.000192184
0.000153626
0.000118062
8.61304e-05
5.82131e-05
3.3753e-05
1.47482e-05
4.10474e-06
5.74531e-07
3.15517e-08
6.28982e-09
0.00106626
0.0010752
0.00109211
0.00111403
0.00113167
0.00114212
0.00115216
0.00116133
0.00116922
0.00117549
0.00117975
0.0011816
0.00118061
0.00117634
0.00116839
0.00115639
0.00114003
0.00111911
0.00109355
0.00106338
0.00102877
0.000989993
0.000947463
0.000901667
0.00085317
0.000802573
0.000750495
0.000697541
0.000644282
0.000585204
0.000526495
0.000470749
0.000418215
0.000368544
0.000321336
0.000276304
0.000233324
0.00019247
0.000154019
0.00011848
8.65172e-05
5.85303e-05
3.39868e-05
1.48788e-05
4.14873e-06
5.81304e-07
3.19101e-08
6.33852e-09
0.0011309
0.00114113
0.00115875
0.00117584
0.00118635
0.00119707
0.00120727
0.00121638
0.00122391
0.00122939
0.00123238
0.00123243
0.00122909
0.00122193
0.00121059
0.00119478
0.0011743
0.00114906
0.00111911
0.00108461
0.00104585
0.00100323
0.000957247
0.000908451
0.000857444
0.000804841
0.000751244
0.000697222
0.000641221
0.000580775
0.000522494
0.000467668
0.000416072
0.000367193
0.000320596
0.000275996
0.000233304
0.000192625
0.000154272
0.000118771
8.68003e-05
5.87715e-05
3.41709e-05
1.49852e-05
4.1853e-06
5.86997e-07
3.22158e-08
6.38318e-09
0.00120083
0.00121072
0.00122085
0.00123037
0.001241
0.00125176
0.00126183
0.00127053
0.00127727
0.00128152
0.00128274
0.00128047
0.00127427
0.00126375
0.00124863
0.00122871
0.00120392
0.0011743
0.00114003
0.00110139
0.00105879
0.00101272
0.000963722
0.0009124
0.000859359
0.000805197
0.000750479
0.000695723
0.000636399
0.000576101
0.00051875
0.000464926
0.000414198
0.000366001
0.000319897
0.000275634
0.000233164
0.000192633
0.000154376
0.000118929
8.69766e-05
5.89346e-05
3.43051e-05
1.50669e-05
4.21422e-06
5.91565e-07
3.2466e-08
6.42323e-09
0.00126387
0.00126803
0.00127542
0.00128493
0.00129545
0.00130595
0.00131553
0.0013234
0.00132888
0.00133136
0.00133028
0.00132516
0.00131561
0.00130132
0.0012821
0.00125788
0.00122871
0.00119478
0.00115639
0.00111393
0.00106788
0.00101881
0.000967296
0.000913935
0.00085932
0.000804012
0.000748521
0.000693188
0.000631499
0.000571613
0.000515345
0.000462537
0.000412586
0.000364948
0.000319223
0.000275212
0.000232915
0.000192511
0.00015435
0.000118972
8.70584e-05
5.90276e-05
3.43942e-05
1.51257e-05
4.23591e-06
5.95058e-07
3.26622e-08
6.45826e-09
0.00131867
0.00132279
0.00133006
0.00133934
0.00134948
0.00135936
0.00136801
0.00137456
0.00137823
0.00137838
0.00137444
0.00136596
0.00135262
0.00133422
0.00131069
0.0012821
0.00124863
0.00121059
0.00116839
0.00112252
0.0010735
0.00102193
0.000968397
0.000913476
0.000857721
0.000801642
0.000745692
0.000687805
0.000626582
0.000567706
0.000512477
0.00046054
0.000411235
0.000364032
0.000318586
0.000274757
0.000232592
0.000192296
0.000154228
0.000118925
8.70652e-05
5.90635e-05
3.4445e-05
1.51643e-05
4.25107e-06
5.97566e-07
3.28082e-08
6.48784e-09
0.00137362
0.0013776
0.00138456
0.00139335
0.00140276
0.00141161
0.00141883
0.0014235
0.00142478
0.00142202
0.00141467
0.00140237
0.00138489
0.00136215
0.00133422
0.00130132
0.00126375
0.00122193
0.00117634
0.00112753
0.00107606
0.00102252
0.000967456
0.000911425
0.000854924
0.000798399
0.000742243
0.000682432
0.000621882
0.000564257
0.00051011
0.000458947
0.000410155
0.000363269
0.000318013
0.000274306
0.000232234
0.000192025
0.000154043
0.000118815
8.7015e-05
5.90535e-05
3.4463e-05
1.5185e-05
4.26022e-06
5.9915e-07
3.29056e-08
6.51123e-09
0.00142846
0.00143218
0.00143863
0.00144662
0.00145489
0.00146221
0.00146746
0.00146965
0.00146795
0.0014617
0.00145046
0.00143395
0.00141206
0.00138489
0.00135262
0.00131561
0.00127427
0.00122909
0.00118061
0.00112939
0.001076
0.00102099
0.000964875
0.000908151
0.000851252
0.000794563
0.000738412
0.000677315
0.000617673
0.000561348
0.000508231
0.000457738
0.000409345
0.000362673
0.000317529
0.000273888
0.000231873
0.000191727
0.000153816
0.000118658
8.69191e-05
5.90046e-05
3.44504e-05
1.51882e-05
4.26338e-06
5.99802e-07
3.29527e-08
6.52726e-09
0.00148282
0.00148616
0.00149184
0.00149867
0.00150536
0.00151062
0.0015133
0.00151241
0.00150713
0.00149689
0.00148134
0.00146034
0.00143395
0.00140237
0.00136596
0.00132516
0.00128047
0.00123243
0.0011816
0.00112852
0.00107374
0.00101775
0.000961017
0.00090397
0.000846981
0.000790374
0.00073273
0.00067241
0.000614156
0.000559073
0.000506841
0.000456896
0.000408792
0.000362247
0.000317146
0.00027352
0.000231523
0.000191414
0.000153557
0.00011846
8.67816e-05
5.89188e-05
3.44064e-05
1.51729e-05
4.26009e-06
5.99435e-07
3.29439e-08
6.53425e-09
0.00153622
0.00153902
0.00154366
0.00154894
0.00155354
0.00155618
0.0015557
0.00155114
0.00154176
0.00152711
0.00150696
0.00148134
0.00145046
0.00141467
0.00137444
0.00133028
0.00128274
0.00123238
0.00117975
0.00112535
0.00106967
0.00101315
0.000956182
0.000899133
0.000842309
0.000785979
0.000726911
0.000667787
0.000611159
0.000557333
0.000505895
0.000456385
0.000408474
0.000361978
0.00031686
0.000273201
0.000231187
0.000191086
0.000153264
0.00011822
8.6601e-05
5.87939e-05
3.43271e-05
1.51367e-05
4.24939e-06
5.97894e-07
3.28696e-08
6.53009e-09
0.00158805
0.00159014
0.00159343
0.00159673
0.00159875
0.00159821
0.00159401
0.00158526
0.00157136
0.00155199
0.00152711
0.00149689
0.0014617
0.00142202
0.00137838
0.00133136
0.00128152
0.00122939
0.00117549
0.00112026
0.00106413
0.00100747
0.000950598
0.000893814
0.00083737
0.000780385
0.000721124
0.000663614
0.000608667
0.000556033
0.000505299
0.000456138
0.000408344
0.000361838
0.000316653
0.000272921
0.000230856
0.000190739
0.000152935
0.000117933
8.6373e-05
5.8626e-05
3.42075e-05
1.50765e-05
4.23012e-06
5.94987e-07
3.27187e-08
6.5124e-09
0.00163757
0.0016388
0.00164042
0.00164133
0.00164026
0.00163603
0.00162762
0.00161428
0.00159557
0.00157136
0.00154176
0.00150713
0.00146795
0.00142478
0.00137823
0.00132888
0.00127727
0.00122391
0.00116922
0.00111361
0.00105741
0.00100092
0.000944413
0.000888106
0.000832147
0.000773009
0.000715311
0.000659921
0.000606623
0.000555054
0.000504929
0.000456051
0.000408331
0.00036178
0.000316499
0.000272667
0.000230525
0.000190368
0.000152565
0.000117598
8.60949e-05
5.84117e-05
3.40424e-05
1.49888e-05
4.20106e-06
5.90518e-07
3.24798e-08
6.47874e-09
0.001684
0.00168419
0.00168385
0.00168197
0.00167739
0.00166905
0.00165608
0.0016379
0.00161428
0.00158526
0.00155114
0.00151241
0.00146965
0.0014235
0.00137456
0.0013234
0.00127053
0.00121638
0.00116133
0.00110568
0.00104971
0.000993652
0.000937699
0.000881429
0.000822509
0.000765179
0.000710003
0.000656667
0.000604812
0.000554181
0.000504598
0.000455977
0.000408325
0.000361732
0.000316357
0.000272418
0.000230187
0.000189975
0.000152159
0.000117216
8.5768e-05
5.81502e-05
3.38277e-05
1.48709e-05
4.16115e-06
5.84315e-07
3.21426e-08
6.42667e-09
0.00172651
0.00172552
0.00172297
0.00171799
0.00170958
0.00169685
0.00167914
0.00165608
0.00162762
0.00159401
0.0015557
0.0015133
0.00146746
0.00141883
0.00136801
0.00131553
0.00126183
0.00120727
0.00115216
0.00109674
0.00104121
0.000985748
0.00092762
0.000868842
0.000812288
0.000757868
0.000705065
0.000653493
0.000602895
0.000553103
0.000504034
0.000455692
0.000408157
0.000361574
0.000316147
0.00027213
0.000229822
0.000189556
0.000151719
0.000116794
8.53961e-05
5.78426e-05
3.35599e-05
1.47199e-05
4.10925e-06
5.76192e-07
3.16955e-08
6.35306e-09
0.00176433
0.00176206
0.00175714
0.00174887
0.00173647
0.00171928
0.00169685
0.00166905
0.00163603
0.00159821
0.00155618
0.00151062
0.00146221
0.00141161
0.00135936
0.00130595
0.00125176
0.00119707
0.00114212
0.00108708
0.0010318
0.000970606
0.000911764
0.00085614
0.00080278
0.000750901
0.000700057
0.000649964
0.000600444
0.000551415
0.000502871
0.000454878
0.000407559
0.000361094
0.000315713
0.000271696
0.000229366
0.000189076
0.000151233
0.000116328
8.49799e-05
5.74886e-05
3.32339e-05
1.45319e-05
4.04384e-06
5.65898e-07
3.11222e-08
6.253e-09
0.00179682
0.00179324
0.00178589
0.00177431
0.00175798
0.00173647
0.00170958
0.00167739
0.00164026
0.00159875
0.00155354
0.00150536
0.00145489
0.00140276
0.00134948
0.00129545
0.001241
0.00118635
0.00113167
0.00107286
0.00101078
0.000952099
0.000897101
0.000844664
0.000793799
0.000743893
0.000694579
0.000645656
0.000597034
0.000548701
0.000500706
0.000453149
0.000406175
0.000359976
0.000314793
0.000270913
0.000228673
0.000188442
0.000150645
0.00011579
8.45071e-05
5.70826e-05
3.28423e-05
1.43015e-05
3.96289e-06
5.53098e-07
3.03996e-08
6.11922e-09
0.00182347
0.00181862
0.00180896
0.00179428
0.00177432
0.00174887
0.00171799
0.00168197
0.00164133
0.00159673
0.00154894
0.00149867
0.00144662
0.00139335
0.00133934
0.00128493
0.00123037
0.00117585
0.00111403
0.00105014
0.000990809
0.000935995
0.000884214
0.00083422
0.000785207
0.000736703
0.000688463
0.000640388
0.000592464
0.000544733
0.000497278
0.000450216
0.000403698
0.000357915
0.000313098
0.000269529
0.000227541
0.000187507
0.000149861
0.000115127
8.3951e-05
5.66137e-05
3.23803e-05
1.40258e-05
3.86525e-06
5.37608e-07
2.95125e-08
5.94515e-09
0.00184391
0.00183795
0.00182629
0.00180896
0.00178589
0.00175714
0.00172297
0.00168385
0.00164042
0.00159343
0.00154366
0.00149184
0.00143863
0.00138456
0.00133006
0.00127542
0.00122085
0.00115876
0.00109211
0.00103051
0.000974721
0.000922942
0.000873447
0.000825109
0.000777274
0.000729622
0.000682032
0.000634492
0.000587048
0.00053978
0.000492794
0.000446215
0.000400194
0.00035491
0.000310578
0.000267463
0.00022588
0.00018619
0.000148823
0.000114306
8.33018e-05
5.60879e-05
3.18656e-05
1.37161e-05
3.75526e-06
5.20138e-07
2.84986e-08
5.73586e-09
0.00185787
0.00185109
0.00183795
0.00181862
0.00179324
0.00176207
0.00172552
0.00168419
0.0016388
0.00159015
0.00153902
0.00148616
0.00143218
0.0013776
0.00132279
0.00126803
0.00121072
0.00114114
0.0010752
0.00101643
0.000963296
0.000913504
0.000865405
0.000817997
0.000770774
0.000723541
0.000676266
0.000629
0.000581829
0.00053486
0.000488213
0.000442021
0.000396431
0.000351612
0.000307764
0.000265128
0.000223998
0.000184712
0.000147685
0.000113439
8.26452e-05
5.55767e-05
3.13749e-05
1.34199e-05
3.65009e-06
5.03443e-07
2.752e-08
5.52566e-09
0.00186505
0.00185787
0.00184391
0.00182347
0.00179682
0.00176434
0.00172651
0.001684
0.00163757
0.00158805
0.00153622
0.00148282
0.00142846
0.00137362
0.00131868
0.00126387
0.00120084
0.00113091
0.00106627
0.00100904
0.000957206
0.000908376
0.000860916
0.000813902
0.000766915
0.000719828
0.00067266
0.000625493
0.000578435
0.000531609
0.000485141
0.000439169
0.00039384
0.000349315
0.000305783
0.000263471
0.000222657
0.000183661
0.000146885
0.00011284
8.2201e-05
5.52395e-05
3.10558e-05
1.32268e-05
3.58153e-06
4.92571e-07
2.68783e-08
5.38386e-09
)
;

boundaryField
{
    inlet
    {
        type            cyclic;
    }
    outlet
    {
        type            cyclic;
    }
    walls
    {
        type            nutLowReWallFunction;
        value           uniform 0;
    }
    symPlanes
    {
        type            symmetry;
    }
}


// ************************************************************************* //
