/*--------------------------------*- C++ -*----------------------------------*\
| =========                 |                                                 |
| \\      /  F ield         | OpenFOAM: The Open Source CFD Toolbox           |
|  \\    /   O peration     | Version:  2506                                  |
|   \\  /    A nd           | Website:  www.openfoam.com                      |
|    \\/     M anipulation  |                                                 |
\*---------------------------------------------------------------------------*/
FoamFile
{
    version     2.0;
    format      ascii;
    arch        "LSB;label=32;scalar=64";
    class       volTensorField;
    location    "2137";
    object      Omegaij;
}
// * * * * * * * * * * * * * * * * * * * * * * * * * * * * * * * * * * * * * //

dimensions      [0 0 -1 0 0 0 0];

internalField   nonuniform List<tensor> 
2304
(
(-0 0.00283946 7.01735 -0.00283946 -0 -0.0265204 -7.01735 0.0265204 -0)
(-0 0.00716854 7.10975 -0.00716854 -0 -0.073397 -7.10975 0.073397 -0)
(-0 0.00874933 7.2444 -0.00874933 -0 -0.107323 -7.2444 0.107323 -0)
(-0 0.00819405 7.37582 -0.00819405 -0 -0.129669 -7.37582 0.129669 -0)
(-0 0.00675965 7.48308 -0.00675965 -0 -0.144445 -7.48308 0.144445 -0)
(-0 0.00529081 7.56422 -0.00529081 -0 -0.155229 -7.56422 0.155229 -0)
(-0 0.004059 7.62412 -0.004059 -0 -0.163981 -7.62412 0.163981 -0)
(-0 0.00303849 7.6677 -0.00303849 -0 -0.171598 -7.6677 0.171598 -0)
(-0 0.00214198 7.69821 -0.00214198 -0 -0.178445 -7.69821 0.178445 -0)
(-0 0.00131754 7.71769 -0.00131754 -0 -0.184753 -7.71769 0.184753 -0)
(-0 0.000555388 7.72769 -0.000555388 -0 -0.190728 -7.72769 0.190728 -0)
(-0 -0.000136903 7.72969 0.000136903 -0 -0.196564 -7.72969 0.196564 -0)
(-0 -0.000756011 7.72511 0.000756011 -0 -0.202402 -7.72511 0.202402 -0)
(-0 -0.00131088 7.7152 0.00131088 -0 -0.208319 -7.7152 0.208319 -0)
(-0 -0.00181979 7.70097 0.00181979 -0 -0.21432 -7.70097 0.21432 -0)
(-0 -0.00230439 7.6831 0.00230439 -0 -0.220346 -7.6831 0.220346 -0)
(-0 -0.00278507 7.66206 0.00278507 -0 -0.226272 -7.66206 0.226272 -0)
(-0 -0.00327062 7.63811 0.00327062 -0 -0.23193 -7.63811 0.23193 -0)
(-0 -0.00375627 7.61151 0.00375627 -0 -0.237127 -7.61151 0.237127 -0)
(-0 -0.00423411 7.58257 0.00423411 -0 -0.241652 -7.58257 0.241652 -0)
(-0 -0.00470784 7.55161 0.00470784 -0 -0.245282 -7.55161 0.245282 -0)
(-0 -0.00521026 7.51886 0.00521026 -0 -0.247776 -7.51886 0.247776 -0)
(-0 -0.00581481 7.48419 0.00581481 -0 -0.24888 -7.48419 0.24888 -0)
(-0 -0.00663869 7.44694 0.00663869 -0 -0.248352 -7.44694 0.248352 -0)
(-0 -0.00783314 7.40574 0.00783314 -0 -0.245948 -7.40574 0.245948 -0)
(-0 -0.00956692 7.35852 0.00956692 -0 -0.241435 -7.35852 0.241435 -0)
(-0 -0.0120129 7.30261 0.0120129 -0 -0.234637 -7.30261 0.234637 -0)
(-0 -0.0153269 7.23484 0.0153269 -0 -0.225466 -7.23484 0.225466 -0)
(-0 -0.019627 7.15187 0.019627 -0 -0.213948 -7.15187 0.213948 -0)
(-0 -0.0249955 7.05041 0.0249955 -0 -0.200211 -7.05041 0.200211 -0)
(-0 -0.0315444 6.9274 0.0315444 -0 -0.184417 -6.9274 0.184417 -0)
(-0 -0.0395804 6.77969 0.0395804 -0 -0.166371 -6.77969 0.166371 -0)
(-0 -0.0494591 6.60281 0.0494591 -0 -0.145902 -6.60281 0.145902 -0)
(-0 -0.061396 6.39209 0.061396 -0 -0.123297 -6.39209 0.123297 -0)
(-0 -0.0755237 6.14299 0.0755237 -0 -0.099093 -6.14299 0.099093 -0)
(-0 -0.0918105 5.85145 0.0918105 -0 -0.0741318 -5.85145 0.0741318 -0)
(-0 -0.109902 5.51465 0.109902 -0 -0.0496628 -5.51465 0.0496628 -0)
(-0 -0.128992 5.13212 0.128992 -0 -0.0273651 -5.13212 0.0273651 -0)
(-0 -0.147833 4.70691 0.147833 -0 -0.00916388 -4.70691 0.00916388 -0)
(-0 -0.164981 4.24622 0.164981 -0 0.00323515 -4.24622 -0.00323515 -0)
(-0 -0.179307 3.76073 0.179307 -0 0.00902899 -3.76073 -0.00902899 -0)
(-0 -0.190603 3.26236 0.190603 -0 0.0092365 -3.26236 -0.0092365 -0)
(-0 -0.199669 2.76068 0.199669 -0 0.00648212 -2.76068 -0.00648212 -0)
(-0 -0.207767 2.26121 0.207767 -0 0.0033514 -2.26121 -0.0033514 -0)
(-0 -0.216241 1.76571 0.216241 -0 0.00120305 -1.76571 -0.00120305 -0)
(-0 -0.22676 1.27291 0.22676 -0 0.000212972 -1.27291 -0.000212972 -0)
(-0 -0.242633 0.778534 0.242633 -0 -3.1268e-05 -0.778534 3.1268e-05 -0)
(-0 -0.273589 0.273589 0.273589 -0 -7.73786e-10 -0.273589 7.73786e-10 -0)
(-0 0.00862928 6.9258 -0.00862928 -0 -0.0211403 -6.9258 0.0211403 -0)
(-0 0.0217842 7.01662 -0.0217842 -0 -0.0590819 -7.01662 0.0590819 -0)
(-0 0.0265862 7.14904 -0.0265862 -0 -0.0878456 -7.14904 0.0878456 -0)
(-0 0.0249001 7.27839 -0.0249001 -0 -0.108233 -7.27839 0.108233 -0)
(-0 0.0205459 7.38413 -0.0205459 -0 -0.122819 -7.38413 0.122819 -0)
(-0 0.0160873 7.46427 -0.0160873 -0 -0.133997 -7.46427 0.133997 -0)
(-0 0.0123467 7.52353 -0.0123467 -0 -0.143174 -7.52353 0.143174 -0)
(-0 0.00924593 7.56671 -0.00924593 -0 -0.151069 -7.56671 0.151069 -0)
(-0 0.00652061 7.59699 -0.00652061 -0 -0.158031 -7.59699 0.158031 -0)
(-0 0.0040139 7.61635 -0.0040139 -0 -0.16429 -7.61635 0.16429 -0)
(-0 0.00169666 7.62635 -0.00169666 -0 -0.170036 -7.62635 0.170036 -0)
(-0 -0.000407974 7.62845 0.000407974 -0 -0.175432 -7.62845 0.175432 -0)
(-0 -0.00229015 7.62404 0.00229015 -0 -0.180597 -7.62404 0.180597 -0)
(-0 -0.00397754 7.61438 0.00397754 -0 -0.185596 -7.61438 0.185596 -0)
(-0 -0.00552635 7.60042 0.00552635 -0 -0.190438 -7.60042 0.190438 -0)
(-0 -0.00700309 7.58284 0.00700309 -0 -0.195085 -7.58284 0.195085 -0)
(-0 -0.00847059 7.56208 0.00847059 -0 -0.19945 -7.56208 0.19945 -0)
(-0 -0.00995602 7.53837 0.00995602 -0 -0.203418 -7.53837 0.203418 -0)
(-0 -0.0114448 7.51195 0.0114448 -0 -0.20686 -7.51195 0.20686 -0)
(-0 -0.0129119 7.4831 0.0129119 -0 -0.209634 -7.4831 0.209634 -0)
(-0 -0.0143674 7.45213 0.0143674 -0 -0.211593 -7.45213 0.211593 -0)
(-0 -0.0159089 7.41926 0.0159089 -0 -0.212579 -7.41926 0.212579 -0)
(-0 -0.0177575 7.38438 0.0177575 -0 -0.212427 -7.38438 0.212427 -0)
(-0 -0.0202696 7.34685 0.0202696 -0 -0.210968 -7.34685 0.210968 -0)
(-0 -0.023905 7.30536 0.023905 -0 -0.208039 -7.30536 0.208039 -0)
(-0 -0.0291749 7.25789 0.0291749 -0 -0.203498 -7.25789 0.203498 -0)
(-0 -0.0366043 7.20184 0.0366043 -0 -0.197242 -7.20184 0.197242 -0)
(-0 -0.0466675 7.13411 0.0466675 -0 -0.189228 -7.13411 0.189228 -0)
(-0 -0.0597255 7.05143 0.0597255 -0 -0.179477 -7.05143 0.179477 -0)
(-0 -0.0760261 6.95053 0.0760261 -0 -0.168062 -6.95053 0.168062 -0)
(-0 -0.0958995 6.8284 0.0958995 -0 -0.155079 -6.8284 0.155079 -0)
(-0 -0.120272 6.68193 0.120272 -0 -0.140562 -6.68193 0.140562 -0)
(-0 -0.150221 6.50682 0.150221 -0 -0.124609 -6.50682 0.124609 -0)
(-0 -0.186397 6.29854 0.186397 -0 -0.107471 -6.29854 0.107471 -0)
(-0 -0.229228 6.05268 0.229228 -0 -0.0895387 -6.05268 0.0895387 -0)
(-0 -0.278669 5.76515 0.278669 -0 -0.0713783 -5.76515 0.0713783 -0)
(-0 -0.33372 5.43288 0.33372 -0 -0.053744 -5.43288 0.053744 -0)
(-0 -0.392012 5.05488 0.392012 -0 -0.0375444 -5.05488 0.0375444 -0)
(-0 -0.449784 4.63345 0.449784 -0 -0.0237167 -4.63345 0.0237167 -0)
(-0 -0.502557 4.17502 0.502557 -0 -0.0130147 -4.17502 0.0130147 -0)
(-0 -0.546643 3.68997 0.546643 -0 -0.00577663 -3.68997 0.00577663 -0)
(-0 -0.581169 3.19083 0.581169 -0 -0.00167649 -3.19083 0.00167649 -0)
(-0 -0.608491 2.68826 0.608491 -0 0.000100793 -2.68826 -0.000100793 -0)
(-0 -0.632434 2.18885 0.632434 -0 0.000508069 -2.18885 -0.000508069 -0)
(-0 -0.656852 1.69526 0.656852 -0 0.000354815 -1.69526 -0.000354815 -0)
(-0 -0.685629 1.20743 0.685629 -0 0.000123628 -1.20743 -0.000123628 -0)
(-0 -0.723683 0.723683 0.723683 -0 -4.47502e-09 -0.723683 4.47502e-09 -0)
(-0 -0.778534 0.242632 0.778534 -0 3.1263e-05 -0.242632 -3.1263e-05 -0)
(-0 0.0145008 6.76318 -0.0145008 -0 -0.0153723 -6.76318 0.0153723 -0)
(-0 0.0366153 6.84717 -0.0366153 -0 -0.0436891 -6.84717 0.0436891 -0)
(-0 0.0447103 6.96984 -0.0447103 -0 -0.0667948 -6.96984 0.0667948 -0)
(-0 0.041914 7.09008 -0.041914 -0 -0.0848852 -7.09008 0.0848852 -0)
(-0 0.0346294 7.18887 -0.0346294 -0 -0.0990402 -7.18887 0.0990402 -0)
(-0 0.0271511 7.26412 -0.0271511 -0 -0.110432 -7.26412 0.110432 -0)
(-0 0.0208622 7.31997 -0.0208622 -0 -0.119883 -7.31997 0.119883 -0)
(-0 0.0156377 7.36074 -0.0156377 -0 -0.127926 -7.36074 0.127926 -0)
(-0 0.0110411 7.38937 -0.0110411 -0 -0.134884 -7.38937 0.134884 -0)
(-0 0.00681294 7.40774 -0.00681294 -0 -0.140984 -7.40774 0.140984 -0)
(-0 0.00290561 7.41732 -0.00290561 -0 -0.146395 -7.41732 0.146395 -0)
(-0 -0.000642541 7.41949 0.000642541 -0 -0.151249 -7.41949 0.151249 -0)
(-0 -0.00381649 7.41556 0.00381649 -0 -0.155641 -7.41556 0.155641 -0)
(-0 -0.00666494 7.40669 0.00666494 -0 -0.159622 -7.40669 0.159622 -0)
(-0 -0.00928507 7.39377 0.00928507 -0 -0.16321 -7.39377 0.16321 -0)
(-0 -0.0117919 7.37739 0.0117919 -0 -0.166387 -7.37739 0.166387 -0)
(-0 -0.0142945 7.35793 0.0142945 -0 -0.16911 -7.35793 0.16911 -0)
(-0 -0.0168412 7.33557 0.0168412 -0 -0.171323 -7.33557 0.171323 -0)
(-0 -0.0194082 7.31047 0.0194082 -0 -0.172962 -7.31047 0.172962 -0)
(-0 -0.0219528 7.28283 0.0219528 -0 -0.17396 -7.28283 0.17396 -0)
(-0 -0.0244882 7.25291 0.0244882 -0 -0.17425 -7.25291 0.17425 -0)
(-0 -0.0271726 7.22083 0.0271726 -0 -0.173765 -7.22083 0.173765 -0)
(-0 -0.0303715 7.18649 0.0303715 -0 -0.17243 -7.18649 0.17243 -0)
(-0 -0.0346831 7.14925 0.0346831 -0 -0.170153 -7.14925 0.170153 -0)
(-0 -0.0408777 7.10792 0.0408777 -0 -0.16685 -7.10792 0.16685 -0)
(-0 -0.049809 7.06066 0.049809 -0 -0.162469 -7.06066 0.162469 -0)
(-0 -0.0623586 7.0051 0.0623586 -0 -0.156979 -7.0051 0.156979 -0)
(-0 -0.07933 6.93843 0.07933 -0 -0.150374 -6.93843 0.150374 -0)
(-0 -0.101348 6.85762 0.101348 -0 -0.142664 -6.85762 0.142664 -0)
(-0 -0.128845 6.75959 0.128845 -0 -0.133857 -6.75959 0.133857 -0)
(-0 -0.162365 6.64137 0.162365 -0 -0.123999 -6.64137 0.123999 -0)
(-0 -0.203424 6.49998 0.203424 -0 -0.113333 -6.49998 0.113333 -0)
(-0 -0.253792 6.33158 0.253792 -0 -0.102203 -6.33158 0.102203 -0)
(-0 -0.314574 6.13219 0.314574 -0 -0.0908069 -6.13219 0.0908069 -0)
(-0 -0.386566 5.89774 0.386566 -0 -0.0793627 -5.89774 0.0793627 -0)
(-0 -0.469869 5.62424 0.469869 -0 -0.0681325 -5.62424 0.0681325 -0)
(-0 -0.563067 5.30822 0.563067 -0 -0.0573627 -5.30822 0.0573627 -0)
(-0 -0.66248 4.94755 0.66248 -0 -0.0472017 -4.94755 0.0472017 -0)
(-0 -0.761954 4.54264 0.761954 -0 -0.037632 -4.54264 0.037632 -0)
(-0 -0.853723 4.09755 0.853723 -0 -0.0284998 -4.09755 0.0284998 -0)
(-0 -0.930735 3.6209 0.930735 -0 -0.0197536 -3.6209 0.0197536 -0)
(-0 -0.990524 3.12545 0.990524 -0 -0.0117794 -3.12545 0.0117794 -0)
(-0 -1.03659 2.62399 1.03659 -0 -0.00561872 -2.62399 0.00561872 -0)
(-0 -1.07537 2.12577 1.07537 -0 -0.00194453 -2.12577 0.00194453 -0)
(-0 -1.11323 1.63577 1.11323 -0 -0.000360929 -1.63577 0.000360929 -0)
(-0 -1.15565 1.15565 1.15565 -0 -8.36605e-09 -1.15565 8.36605e-09 -0)
(-0 -1.20743 0.685629 1.20743 -0 -0.000123642 -0.685629 0.000123642 -0)
(-0 -1.27291 0.22676 1.27291 -0 -0.000212983 -0.22676 0.000212983 -0)
(-0 0.0198973 6.36516 -0.0198973 -0 -0.00935001 -6.36516 0.00935001 -0)
(-0 0.0502704 6.43241 -0.0502704 -0 -0.0275138 -6.43241 0.0275138 -0)
(-0 0.0614616 6.53107 -0.0614616 -0 -0.0443667 -6.53107 0.0443667 -0)
(-0 0.0577348 6.62857 -0.0577348 -0 -0.0594903 -6.62857 0.0594903 -0)
(-0 0.0478184 6.70952 -0.0478184 -0 -0.0725318 -6.70952 0.0725318 -0)
(-0 0.0375743 6.77172 -0.0375743 -0 -0.0835094 -6.77172 0.0835094 -0)
(-0 0.0289126 6.81809 -0.0289126 -0 -0.092688 -6.81809 0.092688 -0)
(-0 0.021689 6.85194 -0.021689 -0 -0.100407 -6.85194 0.100407 -0)
(-0 0.0153268 6.87563 -0.0153268 -0 -0.106952 -6.87563 0.106952 -0)
(-0 0.00947957 6.89077 -0.00947957 -0 -0.112534 -6.89077 0.112534 -0)
(-0 0.00408268 6.89864 -0.00408268 -0 -0.117297 -6.89864 0.117297 -0)
(-0 -0.000815272 6.90042 0.000815272 -0 -0.12134 -6.90042 0.12134 -0)
(-0 -0.00519867 6.89718 0.00519867 -0 -0.12473 -6.89718 0.12473 -0)
(-0 -0.00913939 6.88987 0.00913939 -0 -0.127508 -6.88987 0.127508 -0)
(-0 -0.012776 6.87918 0.012776 -0 -0.129694 -6.87918 0.129694 -0)
(-0 -0.0162723 6.86559 0.0162723 -0 -0.131292 -6.86559 0.131292 -0)
(-0 -0.0197848 6.84936 0.0197848 -0 -0.132304 -6.84936 0.132304 -0)
(-0 -0.0233873 6.83062 0.0233873 -0 -0.13273 -6.83062 0.13273 -0)
(-0 -0.0270552 6.80942 0.0270552 -0 -0.132574 -6.80942 0.132574 -0)
(-0 -0.0307359 6.78583 0.0307359 -0 -0.131846 -6.78583 0.131846 -0)
(-0 -0.034452 6.7599 0.034452 -0 -0.130555 -6.7599 0.130555 -0)
(-0 -0.0384201 6.73158 0.0384201 -0 -0.128717 -6.73158 0.128717 -0)
(-0 -0.0431453 6.70057 0.0431453 -0 -0.126342 -6.70057 0.126342 -0)
(-0 -0.0494334 6.66621 0.0494334 -0 -0.123401 -6.66621 0.123401 -0)
(-0 -0.0583208 6.62749 0.0583208 -0 -0.119877 -6.62749 0.119877 -0)
(-0 -0.0709734 6.58291 0.0709734 -0 -0.11579 -6.58291 0.11579 -0)
(-0 -0.0885926 6.5306 0.0885926 -0 -0.111166 -6.5306 0.111166 -0)
(-0 -0.11229 6.46839 0.11229 -0 -0.106028 -6.46839 0.106028 -0)
(-0 -0.14297 6.39388 0.14297 -0 -0.100375 -6.39388 0.100375 -0)
(-0 -0.181315 6.30455 0.181315 -0 -0.094138 -6.30455 0.094138 -0)
(-0 -0.22811 6.19772 0.22811 -0 -0.0872579 -6.19772 0.0872579 -0)
(-0 -0.285296 6.07062 0.285296 -0 -0.0802023 -6.07062 0.0802023 -0)
(-0 -0.35516 5.92057 0.35516 -0 -0.0736388 -5.92057 0.0736388 -0)
(-0 -0.439263 5.74471 0.439263 -0 -0.0677115 -5.74471 0.0677115 -0)
(-0 -0.5389 5.53989 0.5389 -0 -0.0625255 -5.53989 0.0625255 -0)
(-0 -0.654609 5.30266 0.654609 -0 -0.0581685 -5.30266 0.0581685 -0)
(-0 -0.785105 5.0293 0.785105 -0 -0.0545541 -5.0293 0.0545541 -0)
(-0 -0.926204 4.71614 0.926204 -0 -0.051235 -4.71614 0.051235 -0)
(-0 -1.0702 4.36016 1.0702 -0 -0.0472646 -4.36016 0.0472646 -0)
(-0 -1.20629 3.96031 1.20629 -0 -0.0412756 -3.96031 0.0412756 -0)
(-0 -1.32296 3.51956 1.32296 -0 -0.0321495 -3.51956 0.0321495 -0)
(-0 -1.41391 3.0477 1.41391 -0 -0.0204126 -3.0477 0.0204126 -0)
(-0 -1.48196 2.55921 1.48196 -0 -0.0095896 -2.55921 0.0095896 -0)
(-0 -1.53562 2.06805 1.53562 -0 -0.0027986 -2.06805 0.0027986 -0)
(-0 -1.5843 1.5843 1.5843 -0 -8.90056e-09 -1.5843 8.90056e-09 -0)
(-0 -1.63577 1.11323 1.63577 -0 0.000360909 -1.11323 -0.000360909 -0)
(-0 -1.69526 0.656852 1.69526 -0 -0.000354836 -0.656852 0.000354836 -0)
(-0 -1.76571 0.216241 1.76571 -0 -0.00120307 -0.216241 0.00120307 -0)
(-0 0.0239171 5.62092 -0.0239171 -0 -0.00404625 -5.62092 0.00404625 -0)
(-0 0.0604856 5.66417 -0.0604856 -0 -0.0130617 -5.66417 0.0130617 -0)
(-0 0.0741098 5.72848 -0.0741098 -0 -0.0237529 -5.72848 0.0237529 -0)
(-0 0.0698417 5.79342 -0.0698417 -0 -0.035242 -5.79342 0.035242 -0)
(-0 0.0580493 5.84863 -0.0580493 -0 -0.0461584 -5.84863 0.0461584 -0)
(-0 0.0457303 5.89182 -0.0457303 -0 -0.055702 -5.89182 0.055702 -0)
(-0 0.0352195 5.92422 -0.0352195 -0 -0.0637154 -5.92422 0.0637154 -0)
(-0 0.0264044 5.94774 -0.0264044 -0 -0.0703607 -5.94774 0.0703607 -0)
(-0 0.0186348 5.96397 -0.0186348 -0 -0.0758618 -5.96397 0.0758618 -0)
(-0 0.0115103 5.97411 -0.0115103 -0 -0.080394 -5.97411 0.080394 -0)
(-0 0.0049503 5.97914 -0.0049503 -0 -0.0840691 -5.97914 0.0840691 -0)
(-0 -0.000996946 5.97993 0.000996946 -0 -0.0869537 -5.97993 0.0869537 -0)
(-0 -0.00632245 5.97722 0.00632245 -0 -0.0890882 -5.97722 0.0890882 -0)
(-0 -0.0111196 5.97165 0.0111196 -0 -0.090499 -5.97165 0.090499 -0)
(-0 -0.01556 5.96366 0.01556 -0 -0.0912059 -5.96366 0.0912059 -0)
(-0 -0.0198462 5.95358 0.0198462 -0 -0.0912309 -5.95358 0.0912309 -0)
(-0 -0.0241733 5.9416 0.0241733 -0 -0.0906084 -5.9416 0.0906084 -0)
(-0 -0.0286444 5.92776 0.0286444 -0 -0.0893873 -5.92776 0.0893873 -0)
(-0 -0.0332531 5.91205 0.0332531 -0 -0.0876263 -5.91205 0.0876263 -0)
(-0 -0.0379669 5.8944 0.0379669 -0 -0.085389 -5.8944 0.085389 -0)
(-0 -0.0428455 5.87459 0.0428455 -0 -0.0827367 -5.87459 0.0827367 -0)
(-0 -0.0481823 5.85229 0.0481823 -0 -0.0797284 -5.85229 0.0797284 -0)
(-0 -0.0545988 5.82695 0.0545988 -0 -0.0764094 -5.82695 0.0764094 -0)
(-0 -0.0630332 5.79785 0.0630332 -0 -0.072791 -5.79785 0.072791 -0)
(-0 -0.0746979 5.76414 0.0746979 -0 -0.0688923 -5.76414 0.0688923 -0)
(-0 -0.0909721 5.72475 0.0909721 -0 -0.064758 -5.72475 0.064758 -0)
(-0 -0.113267 5.67845 0.113267 -0 -0.0604329 -5.67845 0.0604329 -0)
(-0 -0.142908 5.62393 0.142908 -0 -0.0559558 -5.62393 0.0559558 -0)
(-0 -0.181036 5.55982 0.181036 -0 -0.0513221 -5.55982 0.0513221 -0)
(-0 -0.228637 5.48455 0.228637 -0 -0.0463903 -5.48455 0.0463903 -0)
(-0 -0.286842 5.39626 0.286842 -0 -0.0408185 -5.39626 0.0408185 -0)
(-0 -0.357676 5.29248 0.357676 -0 -0.0353094 -5.29248 0.0353094 -0)
(-0 -0.443507 5.17238 0.443507 -0 -0.0310493 -5.17238 0.0310493 -0)
(-0 -0.546339 5.03477 0.546339 -0 -0.0280947 -5.03477 0.0280947 -0)
(-0 -0.668056 4.87804 0.668056 -0 -0.0265897 -4.87804 0.0265897 -0)
(-0 -0.809957 4.7 0.809957 -0 -0.0267729 -4.7 0.0267729 -0)
(-0 -0.971731 4.49756 0.971731 -0 -0.0287284 -4.49756 0.0287284 -0)
(-0 -1.15024 4.26625 1.15024 -0 -0.032092 -4.26625 0.032092 -0)
(-0 -1.3384 3.99987 1.3384 -0 -0.0356967 -3.99987 0.0356967 -0)
(-0 -1.52455 3.69099 1.52455 -0 -0.037189 -3.69099 0.037189 -0)
(-0 -1.69275 3.33273 1.69275 -0 -0.0332313 -3.33273 0.0332313 -0)
(-0 -1.82947 2.92452 1.82947 -0 -0.021853 -2.92452 0.021853 -0)
(-0 -1.93188 2.47676 1.93188 -0 -0.00859548 -2.47676 0.00859548 -0)
(-0 -2.00737 2.00737 2.00737 -0 -2.11287e-09 -2.00737 2.11287e-09 -0)
(-0 -2.06805 1.53562 2.06805 -0 0.00279859 -1.53562 -0.00279859 -0)
(-0 -2.12577 1.07537 2.12577 -0 0.00194451 -1.07537 -0.00194451 -0)
(-0 -2.18885 0.632434 2.18885 -0 -0.000508097 -0.632434 0.000508097 -0)
(-0 -2.26122 0.207767 2.26122 -0 -0.00335144 -0.207767 0.00335144 -0)
(-0 0.0262162 4.67996 -0.0262162 -0 -0.000555949 -4.67996 0.000555949 -0)
(-0 0.0664194 4.70241 -0.0664194 -0 -0.00320632 -4.70241 0.00320632 -0)
(-0 0.0816795 4.7373 -0.0816795 -0 -0.00885307 -4.7373 0.00885307 -0)
(-0 0.077367 4.77476 -0.077367 -0 -0.0165592 -4.77476 0.0165592 -0)
(-0 0.06463 4.80859 -0.06463 -0 -0.0246511 -4.80859 0.0246511 -0)
(-0 0.0510812 4.83619 -0.0510812 -0 -0.0320024 -4.83619 0.0320024 -0)
(-0 0.0393619 4.85722 -0.0393619 -0 -0.0382161 -4.85722 0.0382161 -0)
(-0 0.0294527 4.87237 -0.0294527 -0 -0.0432973 -4.87237 0.0432973 -0)
(-0 0.0207073 4.88253 -0.0207073 -0 -0.0473783 -4.88253 0.0473783 -0)
(-0 0.0127093 4.88857 -0.0127093 -0 -0.0505774 -4.88857 0.0505774 -0)
(-0 0.00536474 4.89121 -0.00536474 -0 -0.0529663 -4.89121 0.0529663 -0)
(-0 -0.00128915 4.89103 0.00128915 -0 -0.0545805 -4.89103 0.0545805 -0)
(-0 -0.00725646 4.88853 0.00725646 -0 -0.0554373 -4.88853 0.0554373 -0)
(-0 -0.0126477 4.88406 0.0126477 -0 -0.0555496 -4.88406 0.0555496 -0)
(-0 -0.017655 4.87792 0.017655 -0 -0.0549353 -4.87792 0.0549353 -0)
(-0 -0.0225032 4.8703 0.0225032 -0 -0.0536275 -4.8703 0.0536275 -0)
(-0 -0.0274113 4.86132 0.0274113 -0 -0.0516859 -4.86132 0.0516859 -0)
(-0 -0.0325108 4.85104 0.0325108 -0 -0.0491927 -4.85104 0.0491927 -0)
(-0 -0.0378337 4.83937 0.0378337 -0 -0.0462388 -4.83937 0.0462388 -0)
(-0 -0.0434019 4.82611 0.0434019 -0 -0.0429095 -4.82611 0.0429095 -0)
(-0 -0.0493491 4.81086 0.0493491 -0 -0.0392677 -4.81086 0.0392677 -0)
(-0 -0.0560605 4.79305 0.0560605 -0 -0.0353467 -4.79305 0.0353467 -0)
(-0 -0.0642447 4.77197 0.0642447 -0 -0.0311629 -4.77197 0.0311629 -0)
(-0 -0.0749142 4.74685 0.0749142 -0 -0.0267355 -4.74685 0.0267355 -0)
(-0 -0.0893618 4.71693 0.0893618 -0 -0.0220769 -4.71693 0.0220769 -0)
(-0 -0.109046 4.68147 0.109046 -0 -0.0171919 -4.68147 0.0171919 -0)
(-0 -0.135445 4.63985 0.135445 -0 -0.012098 -4.63985 0.012098 -0)
(-0 -0.169955 4.59151 0.169955 -0 -0.00681656 -4.59151 0.00681656 -0)
(-0 -0.21383 4.53599 0.21383 -0 -0.0013375 -4.53599 0.0013375 -0)
(-0 -0.268267 4.47281 0.268267 -0 0.00452967 -4.47281 -0.00452967 -0)
(-0 -0.33491 4.40144 0.33491 -0 0.0118234 -4.40144 -0.0118234 -0)
(-0 -0.415477 4.32129 0.415477 -0 0.0191063 -4.32129 -0.0191063 -0)
(-0 -0.511845 4.23221 0.511845 -0 0.0245598 -4.23221 -0.0245598 -0)
(-0 -0.626397 4.13428 0.626397 -0 0.0285762 -4.13428 -0.0285762 -0)
(-0 -0.761478 4.02737 0.761478 -0 0.03091 -4.02737 -0.03091 -0)
(-0 -0.919163 3.91094 0.919163 -0 0.0308981 -3.91094 -0.0308981 -0)
(-0 -1.10057 3.78332 1.10057 -0 0.0277205 -3.78332 -0.0277205 -0)
(-0 -1.30492 3.6409 1.30492 -0 0.0206193 -3.6409 -0.0206193 -0)
(-0 -1.52829 3.47702 1.52829 -0 0.00935954 -3.47702 -0.00935954 -0)
(-0 -1.7624 3.28131 1.7624 -0 -0.00439103 -3.28131 0.00439103 -0)
(-0 -1.9918 3.03899 1.9918 -0 -0.0146474 -3.03899 0.0146474 -0)
(-0 -2.19574 2.73253 2.19574 -0 -0.0112667 -2.73253 0.0112667 -0)
(-0 -2.3586 2.3586 2.3586 -0 1.3986e-08 -2.3586 -1.3986e-08 -0)
(-0 -2.47676 1.93188 2.47676 -0 0.00859549 -1.93188 -0.00859549 -0)
(-0 -2.55921 1.48196 2.55921 -0 0.00958959 -1.48196 -0.00958959 -0)
(-0 -2.62399 1.03659 2.62399 -0 0.00561869 -1.03659 -0.00561869 -0)
(-0 -2.68826 0.608491 2.68826 -0 -0.00010083 -0.608491 0.00010083 -0)
(-0 -2.76068 0.199669 2.76068 -0 -0.00648216 -0.199669 0.00648216 -0)
(-0 0.0273426 3.81119 -0.0273426 -0 0.00105616 -3.81119 -0.00105616 -0)
(-0 0.0694842 3.8205 -0.0694842 -0 0.00172176 -3.8205 -0.00172176 -0)
(-0 0.08595 3.83706 -0.08595 -0 -0.000536723 -3.83706 0.000536723 -0)
(-0 0.0820368 3.85778 -0.0820368 -0 -0.00502821 -3.85778 0.00502821 -0)
(-0 0.0690383 3.87893 -0.0690383 -0 -0.0103119 -3.87893 0.0103119 -0)
(-0 0.0548288 3.89757 -0.0548288 -0 -0.0153185 -3.89757 0.0153185 -0)
(-0 0.0422979 3.91227 -0.0422979 -0 -0.0195845 -3.91227 0.0195845 -0)
(-0 0.0315799 3.92285 -0.0315799 -0 -0.0230112 -3.92285 0.0230112 -0)
(-0 0.0220947 3.92976 -0.0220947 -0 -0.0256417 -3.92976 0.0256417 -0)
(-0 0.0134395 3.93362 -0.0134395 -0 -0.0275316 -3.93362 0.0275316 -0)
(-0 0.00550992 3.93498 -0.00550992 -0 -0.0287111 -3.93498 0.0287111 -0)
(-0 -0.0016742 3.93426 0.0016742 -0 -0.0291869 -3.93426 0.0291869 -0)
(-0 -0.00813354 3.93179 0.00813354 -0 -0.0289579 -3.93179 0.0289579 -0)
(-0 -0.0139924 3.92779 0.0139924 -0 -0.0280276 -3.92779 0.0280276 -0)
(-0 -0.0194542 3.92244 0.0194542 -0 -0.0264133 -3.92244 0.0264133 -0)
(-0 -0.0247558 3.91587 0.0247558 -0 -0.0241547 -3.91587 0.0241547 -0)
(-0 -0.0301323 3.90818 0.0301323 -0 -0.0213234 -3.90818 0.0213234 -0)
(-0 -0.0357475 3.89939 0.0357475 -0 -0.0180098 -3.89939 0.0180098 -0)
(-0 -0.0416911 3.88941 0.0416911 -0 -0.0143 -3.88941 0.0143 -0)
(-0 -0.0480668 3.87793 0.0480668 -0 -0.0102559 -3.87793 0.0102559 -0)
(-0 -0.0551048 3.86445 0.0551048 -0 -0.0058984 -3.86445 0.0058984 -0)
(-0 -0.0632757 3.84831 0.0632757 -0 -0.00120515 -3.84831 0.00120515 -0)
(-0 -0.0733632 3.82874 0.0733632 -0 0.00386387 -3.82874 -0.00386387 -0)
(-0 -0.08643 3.80499 0.08643 -0 0.00932755 -3.80499 -0.00932755 -0)
(-0 -0.103774 3.77641 0.103774 -0 0.0152076 -3.77641 -0.0152076 -0)
(-0 -0.126831 3.74255 0.126831 -0 0.021536 -3.74255 -0.021536 -0)
(-0 -0.157039 3.7032 0.157039 -0 0.0283208 -3.7032 -0.0283208 -0)
(-0 -0.195749 3.65837 0.195749 -0 0.0355471 -3.65837 -0.0355471 -0)
(-0 -0.24419 3.60823 0.24419 -0 0.0431752 -3.60823 -0.0431752 -0)
(-0 -0.303495 3.55304 0.303495 -0 0.0510968 -3.55304 -0.0510968 -0)
(-0 -0.374959 3.49326 0.374959 -0 0.0593346 -3.49326 -0.0593346 -0)
(-0 -0.460538 3.43026 0.460538 -0 0.067531 -3.43026 -0.067531 -0)
(-0 -0.562344 3.36428 0.562344 -0 0.0754544 -3.36428 -0.0754544 -0)
(-0 -0.682415 3.29616 0.682415 -0 0.0825103 -3.29616 -0.0825103 -0)
(-0 -0.82317 3.22681 0.82317 -0 0.0877066 -3.22681 -0.0877066 -0)
(-0 -0.98718 3.15666 0.98718 -0 0.0894998 -3.15666 -0.0894998 -0)
(-0 -1.1768 3.08501 1.1768 -0 0.0858877 -3.08501 -0.0858877 -0)
(-0 -1.39358 3.00913 1.39358 -0 0.0748486 -3.00913 -0.0748486 -0)
(-0 -1.6374 2.92312 1.6374 -0 0.0552608 -2.92312 -0.0552608 -0)
(-0 -1.90592 2.81732 1.90592 -0 0.0290334 -2.81732 -0.0290334 -0)
(-0 -2.1933 2.67805 2.1933 -0 0.00604532 -2.67805 -0.00604532 -0)
(-0 -2.47944 2.47944 2.47944 -0 1.79244e-08 -2.47944 -1.79244e-08 -0)
(-0 -2.73253 2.19574 2.73253 -0 0.0112668 -2.19574 -0.0112668 -0)
(-0 -2.92452 1.82947 2.92452 -0 0.021853 -1.82947 -0.021853 -0)
(-0 -3.0477 1.41391 3.0477 -0 0.0204126 -1.41391 -0.0204126 -0)
(-0 -3.12545 0.990524 3.12545 -0 0.0117794 -0.990524 -0.0117794 -0)
(-0 -3.19083 0.581169 3.19083 -0 0.00167644 -0.581169 -0.00167644 -0)
(-0 -3.26236 0.190603 3.26236 -0 -0.00923657 -0.190603 0.00923657 -0)
(-0 0.0276949 3.13183 -0.0276949 -0 0.00186007 -3.13183 -0.00186007 -0)
(-0 0.0706609 3.13237 -0.0706609 -0 0.00431957 -3.13237 -0.00431957 -0)
(-0 0.0880648 3.13654 -0.0880648 -0 0.0041742 -3.13654 -0.0041742 -0)
(-0 0.0848681 3.14571 -0.0848681 -0 0.00194263 -3.14571 -0.00194263 -0)
(-0 0.072086 3.15799 -0.072086 -0 -0.0011726 -3.15799 0.0011726 -0)
(-0 0.057612 3.17035 -0.057612 -0 -0.00424161 -3.17035 0.00424161 -0)
(-0 0.0445401 3.18069 -0.0445401 -0 -0.00683468 -3.18069 0.00683468 -0)
(-0 0.0331976 3.18824 -0.0331976 -0 -0.00882463 -3.18824 0.00882463 -0)
(-0 0.0231136 3.19308 -0.0231136 -0 -0.0102077 -3.19308 0.0102077 -0)
(-0 0.0139208 3.19558 -0.0139208 -0 -0.0109966 -3.19558 0.0109966 -0)
(-0 0.00550825 3.19616 -0.00550825 -0 -0.0111885 -3.19616 0.0111885 -0)
(-0 -0.00212379 3.19511 0.00212379 -0 -0.010768 -3.19511 0.010768 -0)
(-0 -0.00901415 3.19261 0.00901415 -0 -0.00972077 -3.19261 0.00972077 -0)
(-0 -0.0152987 3.18879 0.0152987 -0 -0.00804563 -3.18879 0.00804563 -0)
(-0 -0.0211874 3.18373 0.0211874 -0 -0.00576093 -3.18373 0.00576093 -0)
(-0 -0.0269227 3.17752 0.0269227 -0 -0.00290853 -3.17752 0.00290853 -0)
(-0 -0.0327525 3.17022 0.0327525 -0 0.000442776 -3.17022 -0.000442776 -0)
(-0 -0.0388758 3.16184 0.0388758 -0 0.00421901 -3.16184 -0.00421901 -0)
(-0 -0.0454485 3.15225 0.0454485 -0 0.00836988 -3.15225 -0.00836988 -0)
(-0 -0.0526673 3.14116 0.0526673 -0 0.0128855 -3.14116 -0.0128855 -0)
(-0 -0.0608594 3.12804 0.0608594 -0 0.0178022 -3.12804 -0.0178022 -0)
(-0 -0.0705817 3.11224 0.0705817 -0 0.0231891 -3.11224 -0.0231891 -0)
(-0 -0.0826719 3.09304 0.0826719 -0 0.0291215 -3.09304 -0.0291215 -0)
(-0 -0.0982005 3.06981 0.0982005 -0 0.0356496 -3.06981 -0.0356496 -0)
(-0 -0.118422 3.04212 0.118422 -0 0.0427973 -3.04212 -0.0427973 -0)
(-0 -0.144677 3.00979 0.144677 -0 0.0505601 -3.00979 -0.0505601 -0)
(-0 -0.178291 2.97297 0.178291 -0 0.0588888 -2.97297 -0.0588888 -0)
(-0 -0.220498 2.93208 0.220498 -0 0.0676781 -2.93208 -0.0676781 -0)
(-0 -0.272436 2.88774 0.272436 -0 0.0767384 -2.88774 -0.0767384 -0)
(-0 -0.335154 2.84063 0.335154 -0 0.0856732 -2.84063 -0.0856732 -0)
(-0 -0.409586 2.79149 0.409586 -0 0.0935082 -2.79149 -0.0935082 -0)
(-0 -0.497488 2.74136 0.497488 -0 0.100838 -2.74136 -0.100838 -0)
(-0 -0.600956 2.69184 0.600956 -0 0.10823 -2.69184 -0.10823 -0)
(-0 -0.721861 2.64435 0.721861 -0 0.114131 -2.64435 -0.114131 -0)
(-0 -0.862724 2.60011 0.862724 -0 0.116904 -2.60011 -0.116904 -0)
(-0 -1.02672 2.55975 1.02672 -0 0.114731 -2.55975 -0.114731 -0)
(-0 -1.21759 2.52277 1.21759 -0 0.105792 -2.52277 -0.105792 -0)
(-0 -1.4393 2.48667 1.4393 -0 0.0887859 -2.48667 -0.0887859 -0)
(-0 -1.69505 2.44605 1.69505 -0 0.0632463 -2.44605 -0.0632463 -0)
(-0 -1.98557 2.39215 1.98557 -0 0.0289658 -2.39215 -0.0289658 -0)
(-0 -2.31424 2.31424 2.31424 -0 -1.24028e-08 -2.31424 1.24028e-08 -0)
(-0 -2.67806 2.1933 2.67806 -0 -0.0060453 -2.1933 0.0060453 -0)
(-0 -3.03899 1.9918 3.03899 -0 0.0146475 -1.9918 -0.0146475 -0)
(-0 -3.33273 1.69275 3.33273 -0 0.0332313 -1.69275 -0.0332313 -0)
(-0 -3.51956 1.32296 3.51956 -0 0.0321495 -1.32296 -0.0321495 -0)
(-0 -3.6209 0.930735 3.6209 -0 0.0197536 -0.930735 -0.0197536 -0)
(-0 -3.68997 0.546643 3.68997 -0 0.00577658 -0.546643 -0.00577658 -0)
(-0 -3.76073 0.179307 3.76073 -0 -0.00902906 -0.179307 0.00902906 -0)
(-0 0.0274192 2.61033 -0.0274192 -0 0.00241363 -2.61033 -0.00241363 -0)
(-0 0.070275 2.60473 -0.070275 -0 0.00606388 -2.60473 -0.00606388 -0)
(-0 0.0883321 2.59994 -0.0883321 -0 0.00727316 -2.59994 -0.00727316 -0)
(-0 0.0860546 2.60039 -0.0860546 -0 0.0065221 -2.60039 -0.0065221 -0)
(-0 0.0738668 2.60567 -0.0738668 -0 0.00491456 -2.60567 -0.00491456 -0)
(-0 0.0594794 2.61295 -0.0594794 -0 0.0032821 -2.61295 -0.0032821 -0)
(-0 0.0461294 2.61977 -0.0461294 -0 0.0019912 -2.61977 -0.0019912 -0)
(-0 0.0343502 2.62492 -0.0343502 -0 0.00114859 -2.62492 -0.00114859 -0)
(-0 0.0238075 2.62817 -0.0238075 -0 0.000766804 -2.62817 -0.000766804 -0)
(-0 0.0141861 2.62968 -0.0141861 -0 0.000853141 -2.62968 -0.000853141 -0)
(-0 0.00537499 2.62969 -0.00537499 -0 0.00143085 -2.62969 -0.00143085 -0)
(-0 -0.00264499 2.62837 0.00264499 -0 0.00253145 -2.62837 -0.00253145 -0)
(-0 -0.00993072 2.6258 0.00993072 -0 0.00417833 -2.6258 -0.00417833 -0)
(-0 -0.0166279 2.62201 0.0166279 -0 0.00637579 -2.62201 -0.00637579 -0)
(-0 -0.0229497 2.61703 0.0229497 -0 0.00910605 -2.61703 -0.00910605 -0)
(-0 -0.0291396 2.61087 0.0291396 -0 0.0123309 -2.61087 -0.0123309 -0)
(-0 -0.0354543 2.60358 0.0354543 -0 0.0159946 -2.60358 -0.0159946 -0)
(-0 -0.0421251 2.59513 0.0421251 -0 0.0200518 -2.59513 -0.0200518 -0)
(-0 -0.0493721 2.58542 0.0493721 -0 0.0244973 -2.58542 -0.0244973 -0)
(-0 -0.0574796 2.57414 0.0574796 -0 0.0293736 -2.57414 -0.0293736 -0)
(-0 -0.0668671 2.56083 0.0668671 -0 0.0347629 -2.56083 -0.0347629 -0)
(-0 -0.0781679 2.5449 0.0781679 -0 0.0407641 -2.5449 -0.0407641 -0)
(-0 -0.0922436 2.52575 0.0922436 -0 0.0474575 -2.52575 -0.0474575 -0)
(-0 -0.110129 2.50295 0.110129 -0 0.0548766 -2.50295 -0.0548766 -0)
(-0 -0.132988 2.47629 0.132988 -0 0.0629929 -2.47629 -0.0629929 -0)
(-0 -0.162019 2.44588 0.162019 -0 0.0717068 -2.44588 -0.0717068 -0)
(-0 -0.198383 2.41217 0.198383 -0 0.0808412 -2.41217 -0.0808412 -0)
(-0 -0.243162 2.37589 0.243162 -0 0.0901255 -2.37589 -0.0901255 -0)
(-0 -0.297374 2.33795 0.297374 -0 0.099175 -2.33795 -0.099175 -0)
(-0 -0.362013 2.29929 0.362013 -0 0.107434 -2.29929 -0.107434 -0)
(-0 -0.438059 2.26079 0.438059 -0 0.114201 -2.26079 -0.114201 -0)
(-0 -0.526754 2.22308 0.526754 -0 0.119363 -2.22308 -0.119363 -0)
(-0 -0.629712 2.18777 0.629712 -0 0.122439 -2.18777 -0.122439 -0)
(-0 -0.748973 2.15611 0.748973 -0 0.122171 -2.15611 -0.122171 -0)
(-0 -0.887301 2.12898 0.887301 -0 0.117205 -2.12898 -0.117205 -0)
(-0 -1.04844 2.10681 1.04844 -0 0.106373 -2.10681 -0.106373 -0)
(-0 -1.23732 2.08921 1.23732 -0 0.0890066 -2.08921 -0.0890066 -0)
(-0 -1.46012 2.07432 1.46012 -0 0.0651696 -2.07432 -0.0651696 -0)
(-0 -1.72338 2.05759 1.72338 -0 0.0354893 -2.05759 -0.0354893 -0)
(-0 -2.03168 2.03168 2.03168 -0 -2.83199e-08 -2.03168 2.83199e-08 -0)