/*--------------------------------*- C++ -*----------------------------------*\
| =========                 |                                                 |
| \\      /  F ield         | OpenFOAM: The Open Source CFD Toolbox           |
|  \\    /   O peration     | Version:  2506                                  |
|   \\  /    A nd           | Website:  www.openfoam.com                      |
|    \\/     M anipulation  |                                                 |
\*---------------------------------------------------------------------------*/
FoamFile
{
    version     2.0;
    format      ascii;
    arch        "LSB;label=32;scalar=64";
    class       volScalarField;
    location    "2137";
    object      omega;
}
// * * * * * * * * * * * * * * * * * * * * * * * * * * * * * * * * * * * * * //

dimensions      [0 0 -1 0 0 0 0];

internalField   nonuniform List<scalar> 
2304
(
2465.52
2465.52
2465.52
2465.52
2465.53
2465.53
2465.53
2465.53
2465.53
2465.53
2465.53
2465.53
2465.53
2465.53
2465.53
2465.53
2465.53
2465.53
2465.53
2465.53
2465.53
2465.53
2465.53
2465.53
2465.52
2465.52
2465.52
2465.52
2465.52
2465.52
2465.52
2465.52
2465.52
2465.52
2465.52
2465.51
2465.51
2465.51
2465.51
2465.51
2465.51
2465.5
2465.5
2465.5
2465.5
2465.5
2465.5
2465.5
416.059
416.05
416.045
416.054
416.074
416.099
416.123
416.142
416.156
416.166
416.172
416.175
416.176
416.175
416.171
416.165
416.155
416.141
416.122
416.098
416.069
416.033
415.99
415.952
415.914
415.87
415.818
415.759
415.69
415.612
415.522
415.416
415.296
415.165
415.027
414.887
414.755
414.641
414.552
414.492
414.45
414.456
414.46
414.596
416.056
429.408
567.748
2465.5
139.979
140.092
140.26
140.426
140.564
140.669
140.748
140.805
140.845
140.871
140.884
140.886
140.879
140.865
140.845
140.821
140.792
140.759
140.723
140.683
140.641
140.595
140.546
140.476
140.393
140.296
140.183
140.051
139.899
139.724
139.522
139.287
139.022
138.73
138.416
138.09
137.766
137.459
137.186
136.955
136.767
136.62
136.776
138.325
146.363
188.119
429.408
2465.5
69.6673
69.8065
70.0143
70.2253
70.4057
70.5477
70.655
70.7335
70.7881
70.8223
70.8392
70.8416
70.832
70.8125
70.7845
70.7491
70.7068
70.6579
70.6023
70.5402
70.4713
70.3949
70.3089
70.2011
70.0754
69.9297
69.7603
69.564
69.3379
69.0789
68.7827
68.4432
68.0642
67.6509
67.2105
66.754
66.297
65.8579
65.4553
65.1102
64.8674
64.8874
65.8335
70.0674
85.9713
146.364
416.056
2465.5
44.0692
44.1881
44.3688
44.5578
44.7252
44.8605
44.9639
45.0391
45.0903
45.1213
45.1352
45.1349
45.1227
45.1002
45.0689
45.0294
44.9821
44.9271
44.8644
44.7934
44.7132
44.6221
44.5165
44.3891
44.2401
44.0667
43.8658
43.6354
43.3739
43.08
42.7516
42.3858
41.9891
41.57
41.1386
40.7087
40.2972
39.9223
39.6045
39.3785
39.3442
39.8359
41.9332
48.8385
70.0674
138.325
414.596
2465.5
31.7716
31.8468
31.9659
32.0985
32.2236
32.3291
32.4109
32.4697
32.5082
32.5296
32.5366
32.5316
32.5163
32.4916
32.4585
32.4172
32.3681
32.3112
32.2465
32.1734
32.0904
31.995
31.8829
31.7495
31.593
31.4111
31.2022
30.9663
30.7046
30.4191
30.1123
29.7884
29.4558
29.1263
28.8142
28.5373
28.3162
28.1742
28.1404
28.2688
28.7062
29.8976
33.143
41.9332
65.8336
136.776
414.46
2465.5
24.5279
24.56
24.6174
24.6915
24.7703
24.8415
24.8978
24.9373
24.9611
24.9713
24.9703
24.9594
24.9395
24.9111
24.8743
24.8291
24.7757
24.7144
24.6457
24.5692
24.4838
24.3871
24.275
24.144
23.9917
23.8165
23.6186
23.3998
23.1638
22.916
22.6629
22.4126
22.1771
21.9709
21.8117
21.7209
21.7252
21.8589
22.1697
22.7387
23.7485
25.6901
29.8976
39.8359
64.8874
136.62
414.456
2465.5
19.7099
19.7078
19.7144
19.7378
19.7738
19.8114
19.8419
19.8616
19.8701
19.8686
19.8583
19.8399
19.8135
19.7785
19.7346
19.6813
19.6189
19.5483
19.4708
19.3875
19.2984
19.2018
19.0946
18.9738
18.8369
18.6829
18.5127
18.3296
18.1389
17.9481
17.7655
17.6012
17.4685
17.3828
17.3626
17.4315
17.6232
17.9887
18.6067
19.5942
21.1448
23.7485
28.7062
39.3442
64.8675
136.767
414.451
2465.51
16.2665
16.2417
16.2137
16.201
16.2055
16.218
16.2292
16.2339
16.2308
16.2201
16.2021
16.1768
16.1435
16.1014
16.0494
15.9871
15.9149
15.8346
15.7487
15.6594
15.5681
15.4736
15.3736
15.2651
15.1459
15.0154
14.8754
14.7302
14.5868
14.4536
14.3404
14.2579
14.2178
14.2337
14.322
14.507
14.8294
15.3608
16.2171
17.5603
19.5942
22.7387
28.2688
39.3785
65.1103
136.955
414.492
2465.51
13.7073
13.6684
13.6181
13.5813
13.5644
13.5598
13.5581
13.5532
13.5428
13.5261
13.503
13.4729
13.4348
13.3873
13.3295
13.261
13.1827
13.0969
13.007
12.9162
12.8259
12.7357
12.6433
12.5462
12.4425
12.3324
12.2188
12.1073
12.0058
11.9236
11.8709
11.8579
11.8951
11.9943
12.1712
12.4527
12.8882
13.5639
14.6126
16.2171
18.6067
22.1697
28.1404
39.6045
65.4553
137.186
414.553
2465.51
11.7477
11.6999
11.6352
11.5822
11.5502
11.5336
11.5229
11.5116
11.4966
11.4764
11.4503
11.4173
11.3763
11.3259
11.2652
11.1941
11.1137
11.027
10.9377
10.849
10.7625
10.6777
10.5928
10.5055
10.415
10.3227
10.2325
10.1513
10.0873
10.0502
10.0501
10.097
10.2008
10.3731
10.6311
11.0051
11.5509
12.3604
13.5639
15.3608
17.9887
21.8589
28.1742
39.9223
65.8579
137.459
414.641
2465.51
10.2081
10.1553
10.0818
10.0178
9.97485
9.94883
9.93113
9.91493
9.89643
9.87375
9.8457
9.81109
9.76859
9.71697
9.65548
9.58432
9.50509
9.42081
9.33509
9.25093
9.1697
9.09093
9.0131
8.93497
8.85679
8.78125
8.71342
8.66055
8.63114
8.63461
8.68085
8.77993
8.94238
9.18097
9.51482
9.97709
10.6255
11.5509
12.8882
14.8294
17.6232
21.7252
28.3162
40.2972
66.2971
137.766
414.755
2465.51
8.97187
8.91686
8.83871
8.76771
8.71656
8.68289
8.65903
8.63832
8.61663
8.59166
8.5619
8.526
8.48263
8.43071
8.36977
8.3003
8.22412
8.1442
8.0638
7.98547
7.91028
7.83786
7.76737
7.6987
7.63338
7.57524
7.52994
7.50477
7.50786
7.54798
7.63482
7.77903
7.99261
8.29026
8.69326
9.23643
9.97709
11.0051
12.4527
14.507
17.4315
21.7209
28.5373
40.7087
66.754
138.09
414.887
2465.52
7.96082
7.90565
7.82592
7.75087
7.69373
7.65362
7.62407
7.59885
7.57377
7.54627
7.51461
7.47736
7.43329
7.38151
7.32184
7.25504
7.183
7.10845
7.03421
6.96233
6.89367
6.82822
6.76599
6.70809
6.6572
6.61784
6.59581
6.59784
6.6316
6.70498
6.8274
7.01012
7.26711
7.61562
8.07911
8.69326
9.51482
10.6311
12.1712
14.322
17.3626
21.8117
28.8142
41.1386
67.2105
138.416
415.027
2465.52
7.12128
7.06734
6.98809
6.9111
6.84963
6.80406
6.76915
6.73933
6.71052
6.68007
6.64616
6.60737
6.56258
6.51117
6.4532
6.38964
6.3223
6.25364
6.18596
6.12093
6.05942
6.00195
5.94952
5.90427
5.86969
5.85039
5.852
5.88026
5.94207
6.04543
6.19965
6.41616
6.70984
7.10109
7.61562
8.29026
9.18097
10.3731
11.9943
14.2337
17.3828
21.971
29.1263
41.57
67.651
138.73
415.165
2465.52
6.4149
6.363
6.28556
6.20808
6.14353
6.09331
6.05336
6.01886
5.98604
5.95229
5.91583
5.87532
5.82985
5.77899
5.72308
5.66313
5.60085
5.53834
5.47751
5.41982
5.36636
5.31831
5.27753
5.24678
5.22996
5.23098
5.25479
5.30713
5.39455
5.52514
5.70831
5.95569
6.28232
6.70984
7.26711
7.99261
8.94238
10.2008
11.8951
14.2178
17.4685
22.1771
29.4558
41.9892
68.0643
139.022
415.296
2465.52
5.8128
5.76349
5.68875
5.61183
5.54519
5.49105
5.44644
5.40733
5.37036
5.33313
5.294
5.25179
5.20579
5.15581
5.10231
5.04634
4.98942
4.93334
4.87976
4.83014
4.78595
4.74893
4.7215
4.70643
4.70695
4.72707
4.77146
4.84599
4.95717
5.11287
5.32261
5.59828
5.95569
6.41616
7.01012
7.77903
8.77993
10.097
11.8579
14.2579
17.6012
22.4126
29.7884
42.3858
68.4432
139.287
415.416
2465.52
5.29361
5.24717
5.17565
5.10002
5.03208
4.97467
4.92582
4.8823
4.84125
4.8006
4.75891
4.71524
4.66909
4.62042
4.56977
4.51819
4.46699
4.41774
4.37207
4.33153
4.29788
4.27318
4.25949
4.25954
4.2765
4.31463
4.37863
4.47406
4.60736
4.78635
5.02066
5.32261
5.70831
6.19965
6.8274
7.63482
8.68085
10.0501
11.8709
14.3404
17.7655
22.6629
30.1123
42.7516
68.7827
139.522
415.522
2465.52
4.84137
4.79788
4.72981
4.65593
4.58727
4.52717
4.47454
4.42696
4.38212
4.33834
4.29448
4.24984
4.2041
4.15732
4.11006
4.06333
4.0184
3.97661
3.93963
3.9091
3.88655
3.87393
3.87345
3.88798
3.921
3.97652
4.05914
4.17424
4.32824
4.529
4.78635
5.11287
5.52514
6.04543
6.70498
7.54798
8.63461
10.0502
11.9236
14.4536
17.9481
22.916
30.4191
43.08
69.079
139.724
415.612
2465.52
4.44374
4.40312
4.33854
4.26666
4.19775
4.1355
4.07962
4.02848
3.98038
3.93406
3.88871
3.84383
3.79922
3.75508
3.71189
3.6706
3.63253
3.59879
3.57078
3.55005
3.53823
3.53729
3.54983
3.57872
3.62732
3.69951
3.79977
3.93344
4.10694
4.32824
4.60736
4.95717
5.39455
5.94207
6.6316
7.50786
8.63114
10.0873
12.0058
14.5868
18.139
23.1638
30.7046
43.3739
69.3379
139.899
415.69
2465.52
4.09099
4.05311
3.99193
3.92218
3.85341
3.78953
3.73103
3.67701
3.62641
3.57845
3.53258
3.4884
3.4458
3.4051
3.36665
3.33128
3.30005
3.27412
3.25476
3.2435
3.24226
3.25312
3.27859
3.32151
3.38512
3.4732
3.5902
3.74145
3.93344
4.17424
4.47406
4.84599
5.30713
5.88026
6.59784
7.50477
8.66056
10.1513
12.1073
14.7302
18.3296
23.3998
30.9663
43.6354
69.564
140.051
415.759
2465.53
3.77542
3.74008
3.68213
3.6146
3.54629
3.48136
3.42096
3.36494
3.31288
3.26442
3.21915
3.17668
3.13685
3.0999
3.0663
3.03678
3.0122
2.99384
2.98308
2.98148
2.99092
3.0135
3.05164
3.10811
3.1861
3.28933
3.42225
3.5902
3.79977
4.05914
4.37863
4.77146
5.25479
5.85201
6.59581
7.52994
8.71342
10.2325
12.2188
14.8754
18.5127
23.6186
31.2022
43.8658
69.7603
140.183
415.819
2465.53
3.4908
3.45779
3.4029
3.33763
3.27014
3.20479
3.14334
3.08637
3.03408
2.98633
2.94246
2.90218
2.86543
2.83239
2.80365
2.77996
2.76222
2.75167
2.74966
2.75779
2.77785
2.81192
2.86236
2.93186
3.02359
3.14126
3.28933
3.4732
3.69951
3.97652
4.31463
4.72707
5.23098
5.85039
6.61784
7.57524
8.78125
10.3227
12.3324
15.0154
18.6829
23.8165
31.4111
44.0667
69.9297
140.296
415.87
2465.53
3.23206
3.20119
3.14919
3.08625
3.01997
2.9549
2.89339
2.83671
2.78542
2.73899
2.69696
2.65919
2.62578
2.59703
2.57349
2.55592
2.54526
2.54266
2.54949
2.56727
2.59778
2.64302
2.7053
2.7873
2.89215
3.02359
3.1861
3.38512
3.62732
3.921
4.2765
4.70695
5.22996
5.86969
6.6572
7.63338
8.85679
10.415
12.4425
15.1459
18.8369
23.9917
31.593
44.2401
70.0755
140.393
415.914
2465.53
2.99506
2.96616
2.91693
2.85645
2.79185
2.72787
2.66742
2.61227
2.56259
2.51791
2.4782
2.44348
2.41391
2.38984
2.37184
2.36066
2.35724
2.36268
2.3783
2.40559
2.44627
2.5023
2.57596
2.66991
2.7873
2.93186
3.10811
3.32151
3.57872
3.88798
4.25954
4.70643
5.24678
5.90427
6.70809
7.6987
8.93497
10.5055
12.5462
15.2651
18.9738
24.144
31.7496
44.3891
70.2011
140.476
415.953
2465.53
2.77642
2.74938
2.70288
2.64505
2.58269
2.52071
2.46251
2.40963
2.36198
2.3197
2.28293
2.25179
2.22653
2.20754
2.19539
2.19081
2.19472
2.2082
2.2325
2.26907
2.3196
2.38601
2.47058
2.57596
2.7053
2.86236
3.05164
3.2786
3.54983
3.87345
4.25949
4.7215
5.27754
5.94952
6.76599
7.76737
9.0131
10.5928
12.6433
15.3736
19.0946
24.275
31.8829
44.5165
70.3089
140.546
415.99
2465.53
2.57346
2.54821
2.50447
2.44962
2.39017
2.33119
2.27615
2.22591
2.18094
2.14171
2.10846
2.08144
2.06093
2.04736
2.04131
2.04349
2.05477
2.07621
2.10901
2.1546
2.21463
2.29101
2.38601
2.5023
2.64302
2.81193
3.0135
3.25312
3.53729
3.87393
4.27318
4.74893
5.31831
6.00195
6.82822
7.83786
9.09093
10.6777
12.7357
15.4736
19.2018
24.3871
31.995
44.6222
70.3949
140.595
416.033
2465.53
2.38409
2.36064
2.31979
2.26834
2.21259
2.15762
2.10605
2.05896
2.01733
1.98176
1.9526
1.93017
1.91481
1.90697
1.9072
1.91621
1.93485
1.96412
2.00521
2.05952
2.12869
2.21463
2.3196
2.44627
2.59778
2.77785
2.99092
3.24226
3.53823
3.88655
4.29788
4.78595
5.36636
6.05942
6.89368
7.91028
9.1697
10.7625
12.8259
15.5681
19.2984
24.4838
32.0904
44.7133
70.4713
140.641
416.069
2465.53
2.20685
2.18523
2.14749
2.09998
2.04877
1.9982
1.95038
1.90706
1.8694
1.83806
1.8135
1.79609
1.78621
1.78432
1.79097
1.80685
1.83276
1.8697
1.91885
1.98158
2.05952
2.1546
2.26907
2.40559
2.56727
2.75779
2.98148
3.24351
3.55005
3.9091
4.33153
4.83014
5.41982
6.12093
6.96234
7.98548
9.25094
10.849
12.9162
15.6594
19.3875
24.5692
32.1734
44.7934
70.5402
140.683
416.098
2465.53
2.04076
2.02107
1.98677
1.9438
1.8975
1.85132
1.80778
1.76883
1.73567
1.70909
1.68958
1.67756
1.67345
1.67768
1.69083
1.71354
1.74662
1.79106
1.84801
1.91885
2.00521
2.10901
2.2325
2.3783
2.54949
2.74967
2.98308
3.25476
3.57078
3.93963
4.37208
4.87977
5.47752
6.18596
7.03422
8.06381
9.3351
10.9377
13.007
15.7487
19.4708
24.6457
32.2466
44.8644
70.6023
140.723
416.122
2465.53
1.88533
1.86773
1.83727
1.79906
1.75749
1.71595
1.67718
1.64311
1.61497
1.59359
1.57951
1.57319
1.57505
1.58553
1.60519
1.63469
1.67482
1.72656
1.79106
1.86971
1.96412
2.07621
2.2082
2.36268
2.54266
2.75167
2.99385
3.27412
3.59879
3.97661
4.41775
4.93334
5.53835
6.25364
7.10846
8.14421
9.42081
11.027
13.0969
15.8346
19.5483
24.7144
32.3112
44.9271
70.6579
140.759
416.141
2465.53
1.7405
1.72515
1.69844
1.66468
1.62782
1.5913
1.55773
1.52897
1.50628
1.49049
1.48216
1.48178
1.48975
1.50656
1.53274
1.56894
1.61598
1.67482
1.74662
1.83276
1.93485
2.05478
2.19473
2.35724
2.54526
2.76223
3.0122
3.30005
3.63253
4.0184
4.46699
4.98942
5.60086
6.32231
7.183
8.22413
9.50509
11.1137
13.1827
15.9149
19.6189
24.7757
32.3681
44.9821
70.7068
140.792
416.155
2465.53
1.60588
1.59258
1.56928
1.53982
1.50791
1.47673
1.44872
1.42567
1.40877
1.39886
1.39654
1.40226
1.41647
1.43964
1.4723
1.51514
1.56894
1.63469
1.71354
1.80685
1.91621
2.04349
2.19082
2.36067
2.55592
2.77996
3.03678
3.33129
3.6706
4.06334
4.51819
5.04635
5.66313
6.38964
7.25505
8.30031
9.58433
11.1941
13.261
15.9871
19.6813
24.8291
32.4172
45.0294
70.7491
140.821
416.165
2465.53
1.48048
1.46905
1.4491
1.42408
1.39734
1.37176
1.34961
1.33255
1.32172
1.31794
1.3218
1.33376
1.35427
1.38381
1.42293
1.4723
1.53274
1.6052
1.69083
1.79098
1.9072
2.04131
2.19539
2.37185
2.57349
2.80365
3.0663
3.36666
3.7119
4.11007
4.56978
5.10231
5.72308
6.45321
7.32184
8.36977
9.65549
11.2652
13.3295
16.0494
19.7346
24.8743
32.4585
45.0689
70.7846
140.846
416.172
2465.53
1.36372
1.35418
1.33766
1.31721
1.2958
1.27603
1.25995
1.24909
1.24453
1.24705
1.25721
1.2755
1.30236
1.33827
1.38381
1.43964
1.50656
1.58553
1.67769
1.78433
1.90697
2.04737
2.20754
2.38984
2.59703
2.83239
3.0999
3.4051
3.75508
4.15732
4.62042
5.15581
5.779
6.51117
7.38152
8.43072
9.71698
11.326
13.3873
16.1014
19.7785
24.9111
32.4916
45.1002
70.8125
140.865
416.175
2465.53
1.25549
1.24788
1.23484
1.21903
1.20306
1.18923
1.17936
1.17485
1.17668
1.1856
1.20216
1.22683
1.26006
1.30236
1.35427
1.41647
1.48975
1.57505
1.67345
1.78622
1.91481
2.06093
2.22653
2.41391
2.62579
2.86543
3.13685
3.44581
3.79923
4.2041
4.6691
5.2058
5.82985
6.56259
7.43329
8.48263
9.7686
11.3763
13.4348
16.1435
19.8135
24.9395
32.5163
45.1227
70.8321
140.879
416.176
2465.53
1.15582
1.15013
1.1406
1.12945
1.11896
1.11111
1.10752
1.10941
1.11771
1.13309
1.1561
1.18719
1.22683
1.2755
1.33376
1.40226
1.48178
1.5732
1.67756
1.79609
1.93017
2.08144
2.25179
2.44348
2.65919
2.90218
3.17668
3.48841
3.84383
4.24985
4.71525
5.2518
5.87533
6.60737
7.47737
8.526
9.81109
11.4173
13.4729
16.1768
19.8399
24.9594
32.5316
45.1349
70.8416
140.886
416.175
2465.53
1.06476
1.06099
1.05491
1.0484
1.04335
1.04146
1.04412
1.05242
1.06719
1.08906
1.11855
1.1561
1.20216
1.25721
1.3218
1.39654
1.48216
1.57952
1.68958
1.8135
1.95261
2.10847
2.28293
2.47821
2.69696
2.94246
3.21915
3.53259
3.88872
4.29449
4.75891
5.294
5.91584
6.64617
7.51461
8.56191
9.84571
11.4503
13.503
16.2021
19.8583
24.9703
32.5366
45.1352
70.8392
140.884
416.172
2465.53
0.98238
0.980473
0.977776
0.975788
0.976066
0.98003
0.988868
1.00353
1.02474
1.05309
1.08906
1.13309
1.1856
1.24705
1.31794
1.39887
1.49049
1.59359
1.70909
1.83806
1.98176
2.14171
2.31971
2.51792
2.739
2.98633
3.26442
3.57845
3.93406
4.33835
4.8006
5.33314
5.9523
6.68008
7.54627
8.59167
9.87376
11.4764
13.5261
16.2201
19.8686
24.9713
32.5296
45.1213
70.8223
140.871
416.166
2465.53
0.908692
0.908574
0.909123
0.911492
0.916923
0.926578
0.941453
0.962358
0.989946
1.02474
1.06719
1.11771
1.17668
1.24453
1.32172
1.40877
1.50628
1.61497
1.73568
1.8694
2.01734
2.18095
2.36198
2.5626
2.78542
3.03408
3.31288
3.62642
3.98038
4.38213
4.84126
5.37037
5.98604
6.71052
7.57378
8.61664
9.89644
11.4966
13.5428
16.2308
19.8701
24.9611
32.5082
45.0904
70.7881
140.845
416.156
2465.53
0.843655
0.845224
0.84884
0.855342
0.865688
0.880807
0.901519
0.928514
0.962358
1.00353
1.05242
1.10941
1.17485
1.24909
1.33255
1.42567
1.52897
1.64311
1.76883
1.90707
2.05896
2.22591
2.40963
2.61227
2.83672
3.08638
3.36495
3.67701
4.02849
4.42697
4.88231
5.40734
6.01887
6.73934
7.59886
8.63832
9.91494
11.5116
13.5532
16.2339
19.8616
24.9373
32.4697
45.0391
70.7335
140.805
416.142
2465.53
0.787153
0.790282
0.796747
0.807106
0.822069
0.842363
0.868654
0.901519
0.941452
0.988868
1.04412
1.10752
1.17936
1.25995
1.34961
1.44872
1.55773
1.67718
1.80778
1.95038
2.10605
2.27615
2.46251
2.66743
2.8934
3.14334
3.42097
3.73103
4.07963
4.47455
4.92583
5.44645
6.05337
6.76916
7.62408
8.65904
9.93114
11.5229
13.5581
16.2292
19.8419
24.8978
32.4109
44.9639
70.655
140.748
416.123
2465.53
0.739003
0.743548
0.752604
0.766494
0.785718
0.81083
0.842363
0.880806
0.926578
0.980029
1.04146
1.11111
1.18923
1.27603
1.37176
1.47673
1.5913
1.71595
1.85132
1.9982
2.15762
2.33119
2.52071
2.72787
2.95491
3.20479
3.48137
3.78954
4.1355
4.52718
4.97468
5.49106
6.09332
6.80407
7.65363
8.6829
9.94884
11.5336
13.5598
16.218
19.8114
24.8415
32.3291
44.8605
70.5477
140.669
416.099
2465.53
0.698986
0.704779
0.716132
0.733174
0.756232
0.785718
0.822069
0.865687
0.916922
0.976064
1.04335
1.11896
1.20306
1.2958
1.39734
1.50791
1.62782
1.75749
1.8975
2.04877
2.21259
2.39017
2.58269
2.79185
3.01997
3.27014
3.5463
3.85341
4.19776
4.58728
5.03209
5.5452
6.14353
6.84964
7.69374
8.71657
9.97485
11.5502
13.5644
16.2055
19.7738
24.7703
32.2236
44.7252
70.4057
140.564
416.074
2465.53
0.666881
0.673736
0.68705
0.706799
0.733174
0.766493
0.807105
0.855341
0.911491
0.975786
1.0484
1.12945
1.21903
1.3172
1.42408
1.53982
1.66468
1.79906
1.9438
2.09998
2.26834
2.44962
2.64505
2.85645
3.08625
3.33763
3.6146
3.92219
4.26666
4.65593
5.10003
5.61183
6.20808
6.9111
7.75087
8.76772
10.0178
11.5822
13.5813
16.201
19.7378
24.6916
32.0985
44.5578
70.2253
140.426
416.054
2465.53
0.642538
0.650239
0.665123
0.68705
0.716132
0.752603
0.796746
0.848839
0.909122
0.977774
1.05491
1.14059
1.23484
1.33766
1.4491
1.56928
1.69843
1.83726
1.98677
2.14749
2.31978
2.50446
2.70287
2.91693
3.14919
3.4029
3.68213
3.99192
4.33854
4.72981
5.17565
5.68875
6.28556
6.98809
7.82592
8.83871
10.0818
11.6352
13.6181
16.2137
19.7144
24.6174
31.9659
44.3688
70.0143
140.26
416.046
2465.53
0.62595
0.634247
0.650239
0.673736
0.704778
0.743547
0.790281
0.845222
0.908572
0.98047
1.06099
1.15013
1.24787
1.35417
1.46904
1.59258
1.72514
1.86773
2.02106
2.18523
2.36064
2.54821
2.74938
2.96616
3.20118
3.45778
3.74007
4.0531
4.40311
4.79787
5.24717
5.76349
6.363
7.06733
7.90565
8.91686
10.1553
11.6999
13.6684
16.2417
19.7078
24.56
31.8468
44.1882
69.8065
140.092
416.05
2465.52
0.617356
0.62595
0.642538
0.666881
0.698985
0.739002
0.787151
0.843653
0.908689
0.982377
1.06476
1.15582
1.25549
1.36371
1.48047
1.60587
1.7405
1.88533
2.04075
2.20684
2.38409
2.57345
2.77642
2.99505
3.23205
3.49079
3.77541
4.09098
4.44373
4.84136
5.2936
5.81279
6.41489
7.12127
7.96081
8.97186
10.2081
11.7476
13.7073
16.2665
19.7099
24.5279
31.7716
44.0692
69.6673
139.979
416.059
2465.52
)
;

boundaryField
{
    inlet
    {
        type            cyclic;
    }
    outlet
    {
        type            cyclic;
    }
    walls
    {
        type            omegaWallFunction;
        blending        binomial;
        n               2;
        value           nonuniform List<scalar> 
96
(
2465.5
2465.5
2465.5
2465.5
2465.5
2465.5
2465.5
2465.51
2465.51
2465.51
2465.51
2465.51
2465.52
2465.52
2465.52
2465.52
2465.52
2465.52
2465.52
2465.52
2465.53
2465.53
2465.53
2465.53
2465.53
2465.53
2465.53
2465.53
2465.53
2465.53
2465.53
2465.53
2465.53
2465.53
2465.53
2465.53
2465.53
2465.53
2465.53
2465.53
2465.53
2465.53
2465.53
2465.53
2465.53
2465.53
2465.52
2465.52
2465.52
2465.52
2465.52
2465.52
2465.53
2465.53
2465.53
2465.53
2465.53
2465.53
2465.53
2465.53
2465.53
2465.53
2465.53
2465.53
2465.53
2465.53
2465.53
2465.53
2465.53
2465.53
2465.53
2465.53
2465.52
2465.52
2465.52
2465.52
2465.52
2465.52
2465.52
2465.52
2465.52
2465.52
2465.52
2465.51
2465.51
2465.51
2465.51
2465.51
2465.51
2465.5
2465.5
2465.5
2465.5
2465.5
2465.5
2465.5
)
;
    }
    symPlanes
    {
        type            symmetry;
    }
}


// ************************************************************************* //
