/*--------------------------------*- C++ -*----------------------------------*\
| =========                 |                                                 |
| \\      /  F ield         | OpenFOAM: The Open Source CFD Toolbox           |
|  \\    /   O peration     | Version:  2506                                  |
|   \\  /    A nd           | Website:  www.openfoam.com                      |
|    \\/     M anipulation  |                                                 |
\*---------------------------------------------------------------------------*/
FoamFile
{
    version     2.0;
    format      ascii;
    arch        "LSB;label=32;scalar=64";
    class       volScalarField;
    location    "2137";
    object      p;
}
// * * * * * * * * * * * * * * * * * * * * * * * * * * * * * * * * * * * * * //

dimensions      [0 2 -2 0 0 0 0];

internalField   nonuniform List<scalar> 
2304
(
-2.62786e-10
1.1786e-05
3.04173e-05
5.14141e-05
7.20737e-05
9.15066e-05
0.000109623
0.000126618
0.000142689
0.000158011
0.000172739
0.000187035
0.000201058
0.000214961
0.000228878
0.000242922
0.00025717
0.000271663
0.000286406
0.000301367
0.000316483
0.000331662
0.000346786
0.000361713
0.000376297
0.000390373
0.000403771
0.000416317
0.000427855
0.000438264
0.000447461
0.000455426
0.000461963
0.000466915
0.000470176
0.000471698
0.000471529
0.000469851
0.000467028
0.00046361
0.000460266
0.00045766
0.000456083
0.000455368
0.000455156
0.000455144
0.000455163
0.000455166
-5.57493e-07
1.10642e-05
2.94833e-05
5.0287e-05
7.08056e-05
9.01445e-05
0.000108198
0.000125151
0.000141193
0.000156498
0.00017122
0.00018552
0.000199553
0.000213473
0.000227411
0.000241476
0.000255746
0.000270259
0.00028502
0.000299994
0.000315118
0.000330298
0.000345413
0.000360318
0.000374869
0.0003889
0.000402242
0.000414727
0.000426204
0.000436552
0.000445684
0.00045358
0.000460052
0.000464958
0.000468209
0.000469781
0.000469743
0.000468297
0.000465804
0.000462779
0.000459808
0.000457492
0.000456092
0.000455448
0.000455236
0.000455195
0.000455183
0.000455163
-1.9331e-06
9.60349e-06
2.79028e-05
4.8604e-05
6.90526e-05
8.83486e-05
0.000106375
0.000123309
0.000139336
0.000154628
0.00016934
0.00018363
0.000197655
0.000211566
0.000225493
0.000239545
0.000253798
0.000268289
0.000283023
0.000297965
0.00031305
0.000328184
0.000343245
0.000358086
0.000372562
0.000386508
0.000399756
0.000412141
0.000423516
0.000433765
0.000442793
0.000450615
0.000457033
0.000461921
0.00046521
0.000466898
0.000467075
0.000465951
0.000463872
0.000461304
0.000458742
0.000456784
0.000455699
0.000455284
0.0004552
0.00045521
0.000455195
0.000455144
6.74558e-06
1.87816e-05
3.77971e-05
5.92596e-05
8.03855e-05
0.000100235
0.000118695
0.000135956
0.000152219
0.000167663
0.000182452
0.000196756
0.00021074
0.000224562
0.00023836
0.000252242
0.000266286
0.000280527
0.000294968
0.000309577
0.000324291
0.000339019
0.000353647
0.000368033
0.000382026
0.000395453
0.000408139
0.000419906
0.000430595
0.000440075
0.000448247
0.000455213
0.00046073
0.000464674
0.000467004
0.000467757
0.000467075
0.000465217
0.000462583
0.000459672
0.000456952
0.000455165
0.000454576
0.000454709
0.000455002
0.0004552
0.000455236
0.000455156
5.27345e-05
6.61305e-05
8.72169e-05
0.000110874
0.000133962
0.000155431
0.000175178
0.000193432
0.000210431
0.000226385
0.000241487
0.000255933
0.000269914
0.000283612
0.000297178
0.000310725
0.000324329
0.000338017
0.000351782
0.000365586
0.000379369
0.000393051
0.000406535
0.000419703
0.000432387
0.000444398
0.000455534
0.000465576
0.000474319
0.000481575
0.000487196
0.000491393
0.000493851
0.000494428
0.000493114
0.000489982
0.000485203
0.000479075
0.000472079
0.000464916
0.000458329
0.000454077
0.000452949
0.000453714
0.000454709
0.000455284
0.000455448
0.000455368
0.00014645
0.000160719
0.000183279
0.000208541
0.00023313
0.000255901
0.000276731
0.000295858
0.000313533
0.000329987
0.000345429
0.000360076
0.000374134
0.000387795
0.000401209
0.000414485
0.000427682
0.000440807
0.000453836
0.000466725
0.000479419
0.00049186
0.000503985
0.000515701
0.000526854
0.000537254
0.000546687
0.000554899
0.000561624
0.000566576
0.00056938
0.000569638
0.000567533
0.000563087
0.000556334
0.000547325
0.000536106
0.000522727
0.000507386
0.000490637
0.000473168
0.000459411
0.000453145
0.000452949
0.000454576
0.000455699
0.000456092
0.000456083
0.000247662
0.000261115
0.000282576
0.000306787
0.000330561
0.000352775
0.000373244
0.000392144
0.000409682
0.000426062
0.000441473
0.000456112
0.000470163
0.000483792
0.000497121
0.000510229
0.000523145
0.000535859
0.00054834
0.000560551
0.000572462
0.000584046
0.000595263
0.000606039
0.000616267
0.000625782
0.000634379
0.000641793
0.000647728
0.00065182
0.00065353
0.000651541
0.000646507
0.000638624
0.000627943
0.000614557
0.000598608
0.000580223
0.000559475
0.000536111
0.000507344
0.000477898
0.000459411
0.000454077
0.000455165
0.000456784
0.000457492
0.00045766
0.000313855
0.000326146
0.000345828
0.000368304
0.000390654
0.000411779
0.000431422
0.000449688
0.000466735
0.000482733
0.000497846
0.000512242
0.000526073
0.000539473
0.000552532
0.000565298
0.000577787
0.000589981
0.00060186
0.000613406
0.000624609
0.000635453
0.000645895
0.000655853
0.000665224
0.000673828
0.000681445
0.000687782
0.000692515
0.000695265
0.000695663
0.000692955
0.000687018
0.000677803
0.000665402
0.000650179
0.000632791
0.000614025
0.000594586
0.000574662
0.000547142
0.000507344
0.000473168
0.000458329
0.000456952
0.000458742
0.000459808
0.000460266
0.000354305
0.000365863
0.000384445
0.000405904
0.000427456
0.000447968
0.000467112
0.000484943
0.000501596
0.00051723
0.000531994
0.00054604
0.000559498
0.000572479
0.000585054
0.000597256
0.000609102
0.000620584
0.000631702
0.000642456
0.000652841
0.000662823
0.000672334
0.000681245
0.0006894
0.000696553
0.000702438
0.000706704
0.000709009
0.000708984
0.000706413
0.000701376
0.000693335
0.000682269
0.000668616
0.000653199
0.000637089
0.000621244
0.000606433
0.000593241
0.000574662
0.000536111
0.000490637
0.000464916
0.000459672
0.000461304
0.000462779
0.00046361
0.000388914
0.000399626
0.000417039
0.000437413
0.000458115
0.000477967
0.000496561
0.000513895
0.000530081
0.000545266
0.000559589
0.000573183
0.000586158
0.000598603
0.00061057
0.000622086
0.000633175
0.000643847
0.000654126
0.000664026
0.000673532
0.000682582
0.000691057
0.000698756
0.000705456
0.000710833
0.000714579
0.0007163
0.000715685
0.000712424
0.00070641
0.000697832
0.000686761
0.000673741
0.000659715
0.000645843
0.000633215
0.00062233
0.000613333
0.000606433
0.000594586
0.000559475
0.000507386
0.000472079
0.000462583
0.000463872
0.000465804
0.000467028
0.000419367
0.000429096
0.000445113
0.000464176
0.000483838
0.000502884
0.000520808
0.000537539
0.000553155
0.000567791
0.00058157
0.00059461
0.000606996
0.000618802
0.000630063
0.000640803
0.000651061
0.000660861
0.000670245
0.000679225
0.000687756
0.000695726
0.000702948
0.000709136
0.000714008
0.000717172
0.000718323
0.000717075
0.000713245
0.000706666
0.000697481
0.00068615
0.000673374
0.000660192
0.000647851
0.000637516
0.000629979
0.00062514
0.00062233
0.000621244
0.000614025
0.000580223
0.000522727
0.000479075
0.000465217
0.000465951
0.000468297
0.000469851
0.000444912
0.000453584
0.000468062
0.000485656
0.000504145
0.00052228
0.000539449
0.000555499
0.000570468
0.000584473
0.000597623
0.00061002
0.000621729
0.000632811
0.000643291
0.000653196
0.000662578
0.000671469
0.000679909
0.000687884
0.000695297
0.000701962
0.000707621
0.000711907
0.000714514
0.000715025
0.000713234
0.000708817
0.000701899
0.000692471
0.000680981
0.00066823
0.000655488
0.00064412
0.000635381
0.000630107
0.000628511
0.000629979
0.000633215
0.000637089
0.000632791
0.000598608
0.000536106
0.000485203
0.000467075
0.000467075
0.000469743
0.000471529
0.000466046
0.000473614
0.000486464
0.000502474
0.000519673
0.000536798
0.000553131
0.000568428
0.00058268
0.000595979
0.00060842
0.000620092
0.000631044
0.000641329
0.000650969
0.000659991
0.000668462
0.000676399
0.000683818
0.000690654
0.000696732
0.000701787
0.0007055
0.000707449
0.000707396
0.000704945
0.000700164
0.000692739
0.000683332
0.000672148
0.00065985
0.000647344
0.000636336
0.000628428
0.000624698
0.000625419
0.000630107
0.000637516
0.000645843
0.000653199
0.000650179
0.000614557
0.000547325
0.000489982
0.000467757
0.000466898
0.000469781
0.000471698
0.000483537
0.00048998
0.000501145
0.000515468
0.000531253
0.000547254
0.000562657
0.000577121
0.000590581
0.000603101
0.000614759
0.000625631
0.000635754
0.000645181
0.000653932
0.000662029
0.000669543
0.000676453
0.000682723
0.000688213
0.000692661
0.000695734
0.000697097
0.000696308
0.000693379
0.000687859
0.000680286
0.000670231
0.000658471
0.000646698
0.0006359
0.000626483
0.00061917
0.000615841
0.000617759
0.000624698
0.000635381
0.000647851
0.000659715
0.000668616
0.000665402
0.000627943
0.000556334
0.000493114
0.000467004
0.00046521
0.000468209
0.000470176
0.000497962
0.000503284
0.000512732
0.000525277
0.000539524
0.000554273
0.000568639
0.000582185
0.000594779
0.000606453
0.000617263
0.000627276
0.000636516
0.000645043
0.000652866
0.000659994
0.000666484
0.000672244
0.00067717
0.000681035
0.000683506
0.00068422
0.000682931
0.000679146
0.000673223
0.000664299
0.000652835
0.000640232
0.000626811
0.000615435
0.000607927
0.000605062
0.00060533
0.000608281
0.000615841
0.000628428
0.00064412
0.000660192
0.000673741
0.000682269
0.000677803
0.000638624
0.000563087
0.000494428
0.000464674
0.000461922
0.000464958
0.000466915
0.000509733
0.000513953
0.000521679
0.000532377
0.000544966
0.000558332
0.000571546
0.000584084
0.000595746
0.000606523
0.000616443
0.000625563
0.000633893
0.000641494
0.000648356
0.000654453
0.000659813
0.000664241
0.000667568
0.000669495
0.000669662
0.000667754
0.0006636
0.000656505
0.000646017
0.000633002
0.000617507
0.000602878
0.000590373
0.00058162
0.000578349
0.000582179
0.000592679
0.00060533
0.00061917
0.000636336
0.000655488
0.000673374
0.000686761
0.000693335
0.000687018
0.000646507
0.000567533
0.000493851
0.00046073
0.000457033
0.000460052
0.000461963
0.000519131
0.000522289
0.000528317
0.000537126
0.000547952
0.000559807
0.000571755
0.000583201
0.000593879
0.00060373
0.000612749
0.000620972
0.000628388
0.000635052
0.000640906
0.000645872
0.000649963
0.000652825
0.000654287
0.000654024
0.000651585
0.000646683
0.000638218
0.000626438
0.000610671
0.000594109
0.000578172
0.000564729
0.000555586
0.000551619
0.00055407
0.000563857
0.000582179
0.000605062
0.000626483
0.000647344
0.00066823
0.00068615
0.000697832
0.000701376
0.000692955
0.000651541
0.000569638
0.000491393
0.000455213
0.000450615
0.00045358
0.000455426
0.00052635
0.0005285
0.00053288
0.000539788
0.000548773
0.000559003
0.000569581
0.000579864
0.000589528
0.000598456
0.000606592
0.00061394
0.000620451
0.000626178
0.000630955
0.000634638
0.000637331
0.000638403
0.000637681
0.000634843
0.000628609
0.000618694
0.000604573
0.000587724
0.000570079
0.000553652
0.000540334
0.000530924
0.0005267
0.000528601
0.000537593
0.00055407
0.000578349
0.000607927
0.0006359
0.00065985
0.000680981
0.000697481
0.00070641
0.000706413
0.000695663
0.00065353
0.00056938
0.000487196
0.000448247
0.000442793
0.000445684
0.000447461
0.000531529
0.000532735
0.000535539
0.000540564
0.000547659
0.000556177
0.000565301
0.000574372
0.000583015
0.00059105
0.000598362
0.000604884
0.000610502
0.00061532
0.000618954
0.000621142
0.000622151
0.000621003
0.00061678
0.000609124
0.000597433
0.000581548
0.000563853
0.000545898
0.000529886
0.000516658
0.000507356
0.000502904
0.00050446
0.000512846
0.000528601
0.000551619
0.00058162
0.000615435
0.000646698
0.000672148
0.000692471
0.000706667
0.000712424
0.000708984
0.000695265
0.00065182
0.000566576
0.000481575
0.000440075
0.000433765
0.000436553
0.000438264
0.000534759
0.000535092
0.000536407
0.000539594
0.000544786
0.000551536
0.000559153
0.000566986
0.000574623
0.000581852
0.000588464
0.000594245
0.000598941
0.000602719
0.00060495
0.000605108
0.00060243
0.000596946
0.000587442
0.000573609
0.000557285
0.000539378
0.00052199
0.000506442
0.000493683
0.000484574
0.000480218
0.000481535
0.000489432
0.00050446
0.0005267
0.000555586
0.000590373
0.000626811
0.000658471
0.000683332
0.000701899
0.000713245
0.000715685
0.000709009
0.000692515
0.000647728
0.000561624
0.000474319
0.000430595
0.000423516
0.000426204
0.000427855
0.000536083
0.000535617
0.000535542
0.000536965
0.000540276
0.000545243
0.000551331
0.000557918
0.000564614
0.00057121
0.000577172
0.00058209
0.000585371
0.000586481
0.000585445
0.000581777
0.000573639
0.000562371
0.000548229
0.00053172
0.000514501
0.00049807
0.000483241
0.00047104
0.000462434
0.000458315
0.000459638
0.000467176
0.000481535
0.000502904
0.000530924
0.000564729
0.000602878
0.000640232
0.000670231
0.000692739
0.000708817
0.000717075
0.0007163
0.000706704
0.000687782
0.000641793
0.000554899
0.000465576
0.000419906
0.000412141
0.000414727
0.000416317
0.000535505
0.000534317
0.000532964
0.000532719
0.00053421
0.000537417
0.000541975
0.000547347
0.000553261
0.000559137
0.000563306
0.000565553
0.000565594
0.000562187
0.000556146
0.000547402
0.000535549
0.000521284
0.000505594
0.000489573
0.000474024
0.000460064
0.000448594
0.000440596
0.000436941
0.000438425
0.000445803
0.000459638
0.000480218
0.000507356
0.000540334
0.000578172
0.000617507
0.000652835
0.000680286
0.000700164
0.000713234
0.000718323
0.000714579
0.000702438
0.000681445
0.000634379
0.000546687
0.000455534
0.000408139
0.000399756
0.000402242
0.000403771
0.000533005
0.000531171
0.000528661
0.000526869
0.000526633
0.000528126
0.000531186
0.000535486
0.000540474
0.0005434
0.000543519
0.00054105
0.000536431
0.000529213
0.00051959
0.000507667
0.000494235
0.00047951
0.000464369
0.00044978
0.000436679
0.000426096
0.00041885
0.000415768
0.000417583
0.000424953
0.000438425
0.000458315
0.000484574
0.000516658
0.000553652
0.000594109
0.000633002
0.000664299
0.000687859
0.000704945
0.000715025
0.000717172
0.000710833
0.000696553
0.000673828
0.000625782
0.000537254
0.000444398
0.000395453
0.000386508
0.0003889
0.000390373
0.000528544
0.000526146
0.000522608
0.000519411
0.000517563
0.000517396
0.000519107
0.000522299
0.000523824
0.000521238
0.000516721
0.000510314
0.000502097
0.000492258
0.000480584
0.000467361
0.000453267
0.000438862
0.000425138
0.00041302
0.000403345
0.000396959
0.000394556
0.000396809
0.000404318
0.000417583
0.000436941
0.000462434
0.000493683
0.000529886
0.000570079
0.000610671
0.000646017
0.000673223
0.000693379
0.000707396
0.000714514
0.000714008
0.000705456
0.0006894
0.000665224
0.000616267
0.000526854
0.000432387
0.000382026
0.000372562
0.000374869
0.000376297
0.00052209
0.000519214
0.000514792
0.000510351
0.000507008
0.00050529
0.000505826
0.000505773
0.000500944
0.000493838
0.000485816
0.000476562
0.000465835
0.000453798
0.000440592
0.000426759
0.000413065
0.000400172
0.000388975
0.000380272
0.000374756
0.000373095
0.000375868
0.000383618
0.000396809
0.000415768
0.000440596
0.00047104
0.000506442
0.000545898
0.000587724
0.000626438
0.000656505
0.000679146
0.000696308
0.000707448
0.000711906
0.000709136
0.000698756
0.000681245
0.000655853
0.000606039
0.000515701
0.000419703
0.000368033
0.000358086
0.000360318
0.000361712
0.000513649
0.00051039
0.000505242
0.000499729
0.000495048
0.000492059
0.000490273
0.000483622
0.000473632
0.000463417
0.000452413
0.000440443
0.000427558
0.000414097
0.000400403
0.00038711
0.000374972
0.000364633
0.000356823
0.000352177
0.000351255
0.000354588
0.000362651
0.000375868
0.000394556
0.00041885
0.000448594
0.000483241
0.000521989
0.000563853
0.000604573
0.000638218
0.0006636
0.000682931
0.000697097
0.0007055
0.000707621
0.000702948
0.000691057
0.000672334
0.000645895
0.000595262
0.000503985
0.000406535
0.000353647
0.000343245
0.000345413
0.000346786
0.000503314
0.00049977
0.000494056
0.000487665
0.000481997
0.000477877
0.000469962
0.000456875
0.000443614
0.000430295
0.000416563
0.000402495
0.000388313
0.000374462
0.000361395
0.00034973
0.00034011
0.000333089
0.000329222
0.000329004
0.000332883
0.000341285
0.000354588
0.000373095
0.000396959
0.000426096
0.000460064
0.00049807
0.000539378
0.000581548
0.000618694
0.000646683
0.000667754
0.000684219
0.000695734
0.000701787
0.000701962
0.000695726
0.000682581
0.000662823
0.000635453
0.000584046
0.00049186
0.000393051
0.000339019
0.000328184
0.000330298
0.000331662
0.000491304
0.000487556
0.000481439
0.000474444
0.000468033
0.000459823
0.000443941
0.000427049
0.000410812
0.000394834
0.00037909
0.000363825
0.000349374
0.000336207
0.000324784
0.000315624
0.000309223
0.000306009
0.000306394
0.000310762
0.000319478
0.000332883
0.000351255
0.000374756
0.000403345
0.000436679
0.000474024
0.000514501
0.000557285
0.000597433
0.000628609
0.000651585
0.000669662
0.000683505
0.000692661
0.000696731
0.000695296
0.000687756
0.000673532
0.00065284
0.000624609
0.000572462
0.000479419
0.000379369
0.00032429
0.00031305
0.000315118
0.000316483
0.00047798
0.000474088
0.000467779
0.000460306
0.000450918
0.000434433
0.000413887
0.000394429
0.000375734
0.000357874
0.000341059
0.00032563
0.000311955
0.000300453
0.0002915
0.000285477
0.000282732
0.000283577
0.000288326
0.000297289
0.000310762
0.000329004
0.000352177
0.000380272
0.00041302
0.00044978
0.000489573
0.00053172
0.000573609
0.000609124
0.000634843
0.000654024
0.000669495
0.000681035
0.000688213
0.000690653
0.000687883
0.000679224
0.000664026
0.000642456
0.000613406
0.000560551
0.000466724
0.000365586
0.000309577
0.000297964
0.000299994
0.000301367
0.00046385
0.000459862
0.000453323
0.000443443
0.000426782
0.000403762
0.000381136
0.000359537
0.000339187
0.000320432
0.000303608
0.000289062
0.000277114
0.000268065
0.000262168
0.000259664
0.000260786
0.000265768
0.000274862
0.000288326
0.000306394
0.000329223
0.000356823
0.000388976
0.000425138
0.000464369
0.000505594
0.000548229
0.000587442
0.00061678
0.000637681
0.000654287
0.000667568
0.00067717
0.000682722
0.000683818
0.000679909
0.000670245
0.000654126
0.000631701
0.000601859
0.000548339
0.000453835
0.000351781
0.000294968
0.000283022
0.00028502
0.000286406
0.000449097
0.00044473
0.000435315
0.000419123
0.000395501
0.000370252
0.000345996
0.000323092
0.000302134
0.000283596
0.00026783
0.000255116
0.000245656
0.000239614
0.000237118
0.000238308
0.000243348
0.000252428
0.000265768
0.000283578
0.000306009
0.000333089
0.000364634
0.000400172
0.000438862
0.00047951
0.000521284
0.000562371
0.000596946
0.000621002
0.000638403
0.000652825
0.000664241
0.000672244
0.000676452
0.000676399
0.000671469
0.000660861
0.000643846
0.000620583
0.00058998
0.000535859
0.000440806
0.000338016
0.000280527
0.000268289
0.000270259
0.000271663
0.000429716
0.00042312
0.000408071
0.000385885
0.000360069
0.000334086
0.000309093
0.000286012
0.00026562
0.000248409
0.000234664
0.000224539
0.000218102
0.00021539
0.000216447
0.000221361
0.000230268
0.000243348
0.000260787
0.000282732
0.000309224
0.00034011
0.000374972
0.000413066
0.000453267
0.000494236
0.000535549
0.000573639
0.00060243
0.000622151
0.000637331
0.000649963
0.000659813
0.000666484
0.000669543
0.000668461
0.000662577
0.00065106
0.000633174
0.000609101
0.000577786
0.000523145
0.000427682
0.000324328
0.000266285
0.000253798
0.000255745
0.00025717
0.000398954
0.00038925
0.00037122
0.0003477
0.000322021
0.00029597
0.000271352
0.000249317
0.000230651
0.000215763
0.000204812
0.000197809
0.000194705
0.000195462
0.000200093
0.000208678
0.000221361
0.000238309
0.000259665
0.000285478
0.000315624
0.00034973
0.000387111
0.000426759
0.000467361
0.000507667
0.000547403
0.000581777
0.000605108
0.000621142
0.000634638
0.000645872
0.000654453
0.000659994
0.000662029
0.00065999
0.000653195
0.000640802
0.000622085
0.000597255
0.000565297
0.000510228
0.000414485
0.000310724
0.000252241
0.000239545
0.000241475
0.000242921
0.000357963
0.000347506
0.000329733
0.000306908
0.00028176
0.000256742
0.000233763
0.000213985
0.000198085
0.000186323
0.000178709
0.000175141
0.000175507
0.000179754
0.000187912
0.000200093
0.000216447
0.000237118
0.000262168
0.000291501
0.000324785
0.000361396
0.000400403
0.000440592
0.000480585
0.00051959
0.000556146
0.000585445
0.00060495
0.000618953
0.000630955
0.000640905
0.000648355
0.000652865
0.000653931
0.000650968
0.00064329
0.000630062
0.000610569
0.000585053
0.000552531
0.000497121
0.000401208
0.000297177
0.000238359
0.000225493
0.00022741
0.000228878
0.000312504
0.000302576
0.000285464
0.000263594
0.000240083
0.000217388
0.000197303
0.000180864
0.000168561
0.000160488
0.000156534
0.000156543
0.000160407
0.000168116
0.000179754
0.000195463
0.00021539
0.000239614
0.000268066
0.000300453
0.000336208
0.000374463
0.000414098
0.000453799
0.000492259
0.000529213
0.000562187
0.000586481
0.000602719
0.00061532
0.000626178
0.000635052
0.000641494
0.000645043
0.000645181
0.000641328
0.00063281
0.000618801
0.000598602
0.000572479
0.000539472
0.000483791
0.000387794
0.000283612
0.000224561
0.000211565
0.000213472
0.00021496
0.000263647
0.000254213
0.000238369
0.000218626
0.000198048
0.000178931
0.000162841
0.000150592
0.000142463
0.000138408
0.000138263
0.00014189
0.000149249
0.000160407
0.000175507
0.000194706
0.000218103
0.000245657
0.000277115
0.000311956
0.000349375
0.000388313
0.000427558
0.000465836
0.000502098
0.000536432
0.000565594
0.000585371
0.000598941
0.000610502
0.000620451
0.000628388
0.000633892
0.000636516
0.000635753
0.000631043
0.000621729
0.000606996
0.000586157
0.000559497
0.000526072
0.000470162
0.000374133
0.000269913
0.000210739
0.000197654
0.000199552
0.000201057
0.000211592
0.000203296
0.000189718
0.000173282
0.00015682
0.000142333
0.000131065
0.000123565
0.000119926
0.00012003
0.000123741
0.000131006
0.00014189
0.000156543
0.000175141
0.00019781
0.00022454
0.000255116
0.000289063
0.000325631
0.000363826
0.000402496
0.000440444
0.000476563
0.000510314
0.000541051
0.000565553
0.000582089
0.000594245
0.000604884
0.00061394
0.000620972
0.000625562
0.000627275
0.00062563
0.000620091
0.000610019
0.000594609
0.000573183
0.000546039
0.000512241
0.000456111
0.000360074
0.000255932
0.000196755
0.000183629
0.000185519
0.000187035
0.000158244
0.000151628
0.000141169
0.000129008
0.000117565
0.00010842
0.000102447
9.99401e-05
0.000100883
0.000105172
0.000112767
0.000123741
0.000138263
0.000156534
0.00017871
0.000204813
0.000234665
0.000267831
0.000303609
0.00034106
0.000379091
0.000416565
0.000452414
0.000485817
0.000516722
0.00054352
0.000563306
0.000577172
0.000588464
0.000598362
0.000606592
0.000612749
0.000616443
0.000617263
0.000614758
0.00060842
0.000597622
0.000581569
0.000559588
0.000531993
0.000497845
0.000441472
0.000345428
0.000241486
0.000182451
0.000169339
0.000171219
0.000172739
0.00010589
0.000101351
9.46051e-05
8.7328e-05
8.13719e-05
7.78324e-05
7.72269e-05
7.96731e-05
8.51359e-05
9.36042e-05
0.000105172
0.00012003
0.000138408
0.000160488
0.000186323
0.000215764
0.00024841
0.000283597
0.000320433
0.000357875
0.000394836
0.000430297
0.000463418
0.00049384
0.000521239
0.000543401
0.000559137
0.000571211
0.000581852
0.00059105
0.000598456
0.00060373
0.000606522
0.000606453
0.000603101
0.000595978
0.000584472
0.00056779
0.000545266
0.000517229
0.000482732
0.000426061
0.000329985
0.000226384
0.000167662
0.000154627
0.000156497
0.00015801
5.71532e-05
5.4868e-05
5.2025e-05
4.97168e-05
4.9158e-05
5.09814e-05
5.54388e-05
6.25794e-05
7.24385e-05
8.51358e-05
0.000100883
0.000119926
0.000142463
0.000168562
0.000198085
0.000230651
0.000265621
0.000302135
0.000339188
0.000375736
0.000410814
0.000443616
0.000473633
0.000500945
0.000523824
0.000540475
0.000553262
0.000564614
0.000574623
0.000583015
0.000589528
0.000593879
0.000595746
0.000594779
0.000590581
0.000582679
0.000570468
0.000553155
0.00053008
0.000501595
0.000466734
0.000409681
0.000313532
0.00021043
0.000152218
0.000139335
0.000141192
0.000142688
1.47228e-05
1.45612e-05
1.52939e-05
1.74207e-05
2.15709e-05
2.80373e-05
3.69526e-05
4.84145e-05
6.25793e-05
7.9673e-05
9.994e-05
0.000123565
0.000150592
0.000180864
0.000213986
0.000249317
0.000286013
0.000323093
0.000359538
0.00039443
0.00042705
0.000456876
0.000483624
0.000505774
0.0005223
0.000535486
0.000547348
0.000557918
0.000566986
0.000574373
0.000579865
0.000583201
0.000584084
0.000582184
0.000577121
0.000568428
0.000555499
0.000537538
0.000513894
0.000484942
0.000449687
0.000392143
0.000295857
0.000193431
0.000135956
0.000123308
0.00012515
0.000126617
-1.91067e-05
-1.76138e-05
-1.41736e-05
-8.74914e-06
-1.10277e-06
8.9298e-06
2.15368e-05
3.69524e-05
5.54385e-05
7.72266e-05
0.000102447
0.000131065
0.000162841
0.000197303
0.000233763
0.000271352
0.000309094
0.000345997
0.000381137
0.000413888
0.000443942
0.000469964
0.000490274
0.000505827
0.000519108
0.000531187
0.000541976
0.000551332
0.000559154
0.000565302
0.000569582
0.000571755
0.000571547
0.000568639
0.000562657
0.000553131
0.000539449
0.000520808
0.00049656
0.000467111
0.000431421
0.000373243
0.00027673
0.000175177
0.000118694
0.000106374
0.000108197
0.000109622
-4.29664e-05
-4.05842e-05
-3.57449e-05
-2.86004e-05
-1.89898e-05
-6.61429e-06
8.92964e-06
2.8037e-05
5.0981e-05
7.78319e-05
0.00010842
0.000142332
0.00017893
0.000217387
0.000256742
0.00029597
0.000334086
0.000370253
0.000403763
0.000434434
0.000459823
0.000477878
0.00049206
0.000505291
0.000517397
0.000528127
0.000537418
0.000545244
0.000551537
0.000556178
0.000559004
0.000559807
0.000558333
0.000554274
0.000547254
0.000536798
0.00052228
0.000502884
0.000477967
0.000447968
0.000411778
0.000352774
0.000255901
0.000155431
0.000100235
8.83481e-05
9.0144e-05
9.15062e-05
-5.68509e-05
-5.45063e-05
-4.97754e-05
-4.26245e-05
-3.25918e-05
-1.899e-05
-1.10309e-06
2.15704e-05
4.91574e-05
8.13711e-05
0.000117564
0.000156819
0.000198048
0.000240082
0.000281759
0.000322021
0.000360069
0.000395501
0.000426782
0.000450919
0.000468034
0.000481998
0.000495049
0.000507009
0.000517564
0.000526634
0.000534211
0.000540277
0.000544787
0.00054766
0.000548774
0.000547953
0.000544967
0.000539524
0.000531253
0.000519673
0.000504145
0.000483838
0.000458115
0.000427456
0.000390654
0.000330561
0.00023313
0.000133962
8.03852e-05
6.90522e-05
7.08052e-05
7.20733e-05
-6.22374e-05
-6.08071e-05
-5.75489e-05
-5.18573e-05
-4.26247e-05
-2.86007e-05
-8.74964e-06
1.74199e-05
4.97158e-05
8.73269e-05
0.000129007
0.000173281
0.000218624
0.000263593
0.000306907
0.000347699
0.000385884
0.000419123
0.000443443
0.000460306
0.000474444
0.000487666
0.000499729
0.000510352
0.000519412
0.00052687
0.00053272
0.000536966
0.000539595
0.000540565
0.000539789
0.000537127
0.000532379
0.000525278
0.000515469
0.000502476
0.000485657
0.000464177
0.000437414
0.000405905
0.000368304
0.000306788
0.000208542
0.000110874
5.92602e-05
4.86045e-05
5.02875e-05
5.14146e-05
-6.17872e-05
-6.18538e-05
-6.09234e-05
-5.75489e-05
-4.97756e-05
-3.57453e-05
-1.41743e-05
1.52929e-05
5.20237e-05
9.46036e-05
0.000141168
0.000189717
0.000238367
0.000285462
0.000329732
0.000371219
0.00040807
0.000435315
0.000453323
0.000467779
0.000481439
0.000494056
0.000505242
0.000514792
0.000522608
0.000528661
0.000532965
0.000535543
0.000536408
0.00053554
0.000532881
0.000528318
0.000521681
0.000512733
0.000501147
0.000486466
0.000468063
0.000445115
0.00041704
0.000384447
0.000345829
0.000282577
0.00018328
8.7218e-05
3.77981e-05
2.79037e-05
2.94842e-05
3.04182e-05
-5.87866e-05
-6.04106e-05
-6.18538e-05
-6.08072e-05
-5.45065e-05
-4.05847e-05
-1.76146e-05
1.456e-05
5.48665e-05
0.000101349
0.000151626
0.000203294
0.000254212
0.000302574
0.000347504
0.000389248
0.000423119
0.000444729
0.000459861
0.000474088
0.000487556
0.00049977
0.00051039
0.000519214
0.000526147
0.000531172
0.000534317
0.000535618
0.000535093
0.000532736
0.000528501
0.000522291
0.000513955
0.000503285
0.000489982
0.000473616
0.000453586
0.000429098
0.000399628
0.000365866
0.000326148
0.000261118
0.000160722
6.61331e-05
1.87839e-05
9.6057e-06
1.10664e-05
1.17882e-05
-5.61304e-05
-5.87866e-05
-6.17872e-05
-6.22375e-05
-5.68511e-05
-4.29669e-05
-1.91076e-05
1.47215e-05
5.71515e-05
0.000105888
0.000158242
0.00021159
0.000263645
0.000312502
0.000357961
0.000398952
0.000429715
0.000449097
0.000463849
0.00047798
0.000491303
0.000503313
0.000513648
0.00052209
0.000528544
0.000533005
0.000535506
0.000536083
0.00053476
0.00053153
0.000526351
0.000519133
0.000509735
0.000497964
0.000483539
0.000466049
0.000444915
0.000419369
0.000388917
0.000354309
0.000313858
0.000247666
0.000146454
5.27376e-05
6.74835e-06
-1.93044e-06
-5.54875e-07
2.03335e-09
)
;

boundaryField
{
    inlet
    {
        type            cyclic;
    }
    outlet
    {
        type            cyclic;
    }
    walls
    {
        type            zeroGradient;
    }
    symPlanes
    {
        type            symmetry;
    }
}


// ************************************************************************* //
