/*--------------------------------*- C++ -*----------------------------------*\
| =========                 |                                                 |
| \\      /  F ield         | OpenFOAM: The Open Source CFD Toolbox           |
|  \\    /   O peration     | Version:  2506                                  |
|   \\  /    A nd           | Website:  www.openfoam.com                      |
|    \\/     M anipulation  |                                                 |
\*---------------------------------------------------------------------------*/
FoamFile
{
    version     2.0;
    format      ascii;
    arch        "LSB;label=32;scalar=64";
    class       surfaceScalarField;
    location    "2137";
    object      phi;
}
// * * * * * * * * * * * * * * * * * * * * * * * * * * * * * * * * * * * * * //

dimensions      [0 3 -1 0 0 0 0];

oriented        oriented;

internalField   nonuniform List<scalar> 
4512
(
-2.48994e-08
2.4914e-08
-4.44233e-08
1.95237e-08
-5.76335e-08
1.32112e-08
-6.60273e-08
8.39272e-09
-7.16468e-08
5.61958e-09
-7.58895e-08
4.24268e-09
-7.94588e-08
3.56934e-09
-8.26401e-08
3.18106e-09
-8.55659e-08
2.92579e-09
-8.83342e-08
2.76829e-09
-9.10412e-08
2.70705e-09
-9.3767e-08
2.72573e-09
-9.65652e-08
2.79829e-09
-9.94536e-08
2.88842e-09
-1.02418e-07
2.96426e-09
-1.0541e-07
2.99261e-09
-1.08354e-07
2.9436e-09
-1.11156e-07
2.80238e-09
-1.13713e-07
2.55623e-09
-1.1591e-07
2.19737e-09
-1.17627e-07
1.71744e-09
-1.18735e-07
1.10773e-09
-1.19103e-07
3.6751e-10
-1.18609e-07
-4.9359e-10
-1.17125e-07
-1.48373e-09
-1.14543e-07
-2.58215e-09
-1.10788e-07
-3.75498e-09
-1.05843e-07
-4.9456e-09
-9.97471e-08
-6.09554e-09
-9.25749e-08
-7.17217e-09
-8.43488e-08
-8.22613e-09
-7.48526e-08
-9.49622e-09
-6.41245e-08
-1.07281e-08
-5.23687e-08
-1.17558e-08
-3.99383e-08
-1.24304e-08
-2.73855e-08
-1.25528e-08
-1.5506e-08
-1.18795e-08
-5.30395e-09
-1.0202e-08
2.19096e-09
-7.49492e-09
6.26889e-09
-4.07793e-09
6.95324e-09
-6.84356e-10
5.38731e-09
1.56592e-09
3.17303e-09
2.21428e-09
1.41039e-09
1.76263e-09
4.28269e-10
9.8212e-10
6.39513e-11
3.64315e-10
-1.60939e-16
6.39486e-11
-8.70406e-16
-6.98424e-08
9.47562e-08
-1.25554e-07
7.52344e-08
-1.64496e-07
5.21528e-08
-1.90414e-07
3.43089e-08
-2.08504e-07
2.37081e-08
-2.22449e-07
1.81869e-08
-2.34167e-07
1.52871e-08
-2.44502e-07
1.35148e-08
-2.53869e-07
1.22922e-08
-2.62574e-07
1.14732e-08
-2.709e-07
1.10324e-08
-2.79077e-07
1.09025e-08
-2.87258e-07
1.09795e-08
-2.95499e-07
1.11287e-08
-3.03763e-07
1.12283e-08
-3.11927e-07
1.1156e-08
-3.19788e-07
1.08053e-08
-3.27107e-07
1.01205e-08
-3.33609e-07
9.05857e-09
-3.39004e-07
7.59193e-09
-3.42979e-07
5.69226e-09
-3.45201e-07
3.32995e-09
-3.45334e-07
5.00352e-10
-3.43057e-07
-2.77055e-09
-3.38045e-07
-6.49541e-09
-3.30029e-07
-1.05986e-08
-3.1883e-07
-1.49537e-08
-3.04412e-07
-1.93636e-08
-2.86884e-07
-2.3624e-08
-2.66441e-07
-2.76147e-08
-2.43154e-07
-3.15136e-08
-2.16678e-07
-3.59724e-08
-1.87169e-07
-4.02364e-08
-1.5519e-07
-4.37349e-08
-1.21655e-07
-4.59657e-08
-8.79399e-08
-4.62681e-08
-5.59725e-08
-4.38469e-08
-2.81448e-08
-3.80297e-08
-6.90582e-09
-2.87339e-08
6.00152e-09
-1.69853e-08
1.05138e-08
-5.19665e-09
9.12575e-09
2.95396e-09
5.50155e-09
5.83847e-09
2.31231e-09
4.95185e-09
5.22363e-10
2.77206e-09
-6.39533e-11
9.50623e-10
-6.39523e-11
6.39428e-11
-6.39539e-11
-1.10409e-07
2.05164e-07
-1.9984e-07
1.64665e-07
-2.6427e-07
1.16585e-07
-3.08939e-07
7.89765e-08
-3.41252e-07
5.60218e-08
-3.66613e-07
4.35473e-08
-3.87932e-07
3.66068e-08
-4.06582e-07
3.21643e-08
-4.23282e-07
2.8993e-08
-4.38564e-07
2.67555e-08
-4.52896e-07
2.53639e-08
-4.66653e-07
2.46596e-08
-4.80084e-07
2.44108e-08
-4.93285e-07
2.43296e-08
-5.06211e-07
2.41547e-08
-5.18684e-07
2.36289e-08
-5.30413e-07
2.25342e-08
-5.41048e-07
2.0756e-08
-5.502e-07
1.82107e-08
-5.57454e-07
1.48457e-08
-5.62369e-07
1.06069e-08
-5.64474e-07
5.4354e-09
-5.63287e-07
-6.86904e-10
-5.58339e-07
-7.71793e-09
-5.49171e-07
-1.56642e-08
-5.35403e-07
-2.43666e-08
-5.16791e-07
-3.35656e-08
-4.93287e-07
-4.28673e-08
-4.65057e-07
-5.18546e-08
-4.32426e-07
-6.02451e-08
-3.95608e-07
-6.83318e-08
-3.54255e-07
-7.73253e-08
-3.08691e-07
-8.5801e-08
-2.59736e-07
-9.26892e-08
-2.08627e-07
-9.70753e-08
-1.57164e-07
-9.77302e-08
-1.07875e-07
-9.31361e-08
-6.39727e-08
-8.19323e-08
-2.89491e-08
-6.37575e-08
-5.67486e-09
-4.02595e-08
5.01669e-09
-1.58882e-08
6.2613e-09
1.70934e-09
3.38105e-09
8.71871e-09
4.47352e-10
7.88554e-09
-9.50648e-10
4.17006e-09
-9.50642e-10
9.50612e-10
-3.64321e-10
-5.22383e-10
-4.28275e-10
-1.43929e-07
3.49093e-07
-2.62581e-07
2.83317e-07
-3.51044e-07
2.05048e-07
-4.15074e-07
1.43005e-07
-4.63094e-07
1.04041e-07
-5.01445e-07
8.1897e-08
-5.33713e-07
6.8874e-08
-5.61726e-07
6.01766e-08
-5.86517e-07
5.37845e-08
-6.08851e-07
4.9089e-08
-6.29374e-07
4.58868e-08
-6.48598e-07
4.38829e-08
-6.66859e-07
4.26719e-08
-6.84299e-07
4.17693e-08
-7.00882e-07
4.07376e-08
-7.16408e-07
3.91548e-08
-7.30545e-07
3.6671e-08
-7.42896e-07
3.31067e-08
-7.53024e-07
2.83381e-08
-7.60468e-07
2.22901e-08
-7.64747e-07
1.48855e-08
-7.65342e-07
6.03047e-09
-7.61704e-07
-4.32462e-09
-7.53283e-07
-1.61395e-08
-7.39552e-07
-2.93948e-08
-7.20088e-07
-4.38304e-08
-6.94611e-07
-5.90424e-08
-6.63059e-07
-7.44194e-08
-6.25622e-07
-8.92918e-08
-5.82758e-07
-1.03109e-07
-5.34978e-07
-1.16112e-07
-4.81983e-07
-1.3032e-07
-4.24314e-07
-1.4347e-07
-3.62895e-07
-1.54109e-07
-2.98923e-07
-1.61048e-07
-2.3408e-07
-1.62573e-07
-1.70798e-07
-1.56419e-07
-1.12429e-07
-1.403e-07
-6.31593e-08
-1.13028e-07
-2.73868e-08
-7.60321e-08
-8.00968e-09
-3.52653e-08
-2.09807e-09
-4.20228e-09
-2.70864e-09
9.32927e-09
-4.17012e-09
9.34702e-09
-4.17011e-09
4.17004e-09
-2.77209e-09
-4.47411e-10
-9.82128e-10
-2.31235e-09
-1.4104e-09
-1.67678e-07
5.1677e-07
-3.08869e-07
4.24507e-07
-4.18227e-07
3.14407e-07
-5.00935e-07
2.25714e-07
-5.65105e-07
1.68211e-07
-6.17154e-07
1.33947e-07
-6.6097e-07
1.1269e-07
-6.9873e-07
9.79368e-08
-7.31764e-07
8.6819e-08
-7.61061e-07
7.8386e-08
-7.87432e-07
7.22576e-08
-8.11504e-07
6.7955e-08
-8.33693e-07
6.48611e-08
-8.54188e-07
6.22646e-08
-8.72983e-07
5.95327e-08
-8.89896e-07
5.60674e-08
-9.04609e-07
5.13847e-08
-9.16752e-07
4.52491e-08
-9.2592e-07
3.75062e-08
-9.31697e-07
2.80671e-08
-9.33649e-07
1.68373e-08
-9.313e-07
3.68219e-09
-9.24118e-07
-1.15068e-08
-9.11521e-07
-2.87365e-08
-8.92988e-07
-4.79277e-08
-8.68098e-07
-6.87208e-08
-8.36558e-07
-9.0582e-08
-7.98282e-07
-1.12696e-07
-7.5342e-07
-1.34153e-07
-7.02482e-07
-1.54047e-07
-6.46403e-07
-1.72191e-07
-5.85217e-07
-1.91506e-07
-5.19827e-07
-2.0886e-07
-4.51142e-07
-2.22794e-07
-3.80051e-07
-2.32139e-07
-3.07645e-07
-2.34979e-07
-2.35517e-07
-2.28547e-07
-1.66189e-07
-2.09628e-07
-1.03623e-07
-1.75594e-07
-5.36969e-08
-1.25958e-07
-2.32901e-08
-6.56721e-08
-1.13037e-08
-1.61887e-08
-9.34713e-09
7.37269e-09
-9.34711e-09
9.347e-09
-7.8856e-09
2.70852e-09
-4.95188e-09
-3.38114e-09
-1.76264e-09
-5.5016e-09
-3.17304e-09
-1.82499e-07
6.9927e-07
-3.39607e-07
5.81616e-07
-4.65779e-07
4.40579e-07
-5.64931e-07
3.24864e-07
-6.44018e-07
2.47299e-07
-7.08959e-07
1.98887e-07
-7.63633e-07
1.67364e-07
-8.10425e-07
1.44728e-07
-8.50897e-07
1.27291e-07
-8.86229e-07
1.13717e-07
-9.1737e-07
1.03399e-07
-9.45044e-07
9.56288e-08
-9.69731e-07
8.95486e-08
-9.91668e-07
8.4201e-08
-1.01089e-06
7.87547e-08
-1.02727e-06
7.24448e-08
-1.04055e-06
6.46699e-08
-1.05046e-06
5.51607e-08
-1.0567e-06
4.37458e-08
-1.05896e-06
3.03223e-08
-1.05688e-06
1.4763e-08
-1.05007e-06
-3.12848e-09
-1.03802e-06
-2.35637e-08
-1.02014e-06
-4.66173e-08
-9.95902e-07
-7.21618e-08
-9.6488e-07
-9.97438e-08
-9.26749e-07
-1.28712e-07
-8.81376e-07
-1.5807e-07
-8.28786e-07
-1.86743e-07
-7.69243e-07
-2.1359e-07
-7.03513e-07
-2.37921e-07
-6.33636e-07
-2.61383e-07
-5.60887e-07
-2.81609e-07
-4.86139e-07
-2.97542e-07
-4.10196e-07
-3.08082e-07
-3.33873e-07
-3.11301e-07
-2.5815e-07
-3.0427e-07
-1.84539e-07
-2.8324e-07
-1.15812e-07
-2.44321e-07
-5.75847e-08
-1.84185e-07
-2.08847e-08
-1.02372e-07
-7.37283e-09
-2.97006e-08
-7.37282e-09
7.37268e-09
-9.32937e-09
1.13035e-08
-8.71877e-09
2.09792e-09
-5.83851e-09
-6.26141e-09
-2.21429e-09
-9.12582e-09
-5.38734e-09
-1.92504e-07
8.91773e-07
-3.61066e-07
7.50178e-07
-5.0014e-07
5.79653e-07
-6.12519e-07
4.37244e-07
-7.04011e-07
3.38791e-07
-7.79879e-07
2.74755e-07
-8.43794e-07
2.3128e-07
-8.98173e-07
1.99107e-07
-9.44698e-07
1.73817e-07
-9.84672e-07
1.53691e-07
-1.01914e-06
1.37869e-07
-1.0489e-06
1.2539e-07
-1.07449e-06
1.15132e-07
-1.09617e-06
1.05886e-07
-1.11405e-06
9.66311e-08
-1.12806e-06
8.64602e-08
-1.13808e-06
7.46832e-08
-1.14394e-06
6.10204e-08
-1.14547e-06
4.52834e-08
-1.14248e-06
2.7328e-08
-1.13466e-06
6.94679e-09
-1.12161e-06
-1.61794e-08
-1.10278e-06
-4.23924e-08
-1.07756e-06
-7.18429e-08
-1.0453e-06
-1.04423e-07
-1.00545e-06
-1.39593e-07
-9.57571e-07
-1.76588e-07
-9.01423e-07
-2.14218e-07
-8.36899e-07
-2.51267e-07
-7.64138e-07
-2.86352e-07
-6.83825e-07
-3.18233e-07
-5.99929e-07
-3.45279e-07
-5.13852e-07
-3.67686e-07
-4.26713e-07
-3.84681e-07
-3.39967e-07
-3.94829e-07
-2.55517e-07
-3.95751e-07
-1.75843e-07
-3.83943e-07
-1.04013e-07
-3.5507e-07
-4.3237e-08
-3.05097e-07
3.7895e-09
-2.31212e-07
2.97005e-08
-1.28283e-07
2.97005e-08
-2.97005e-08
1.61886e-08
2.08845e-08
4.2022e-09
2.32899e-08
-1.70939e-09
8.0095e-09
-2.95399e-09
-5.01682e-09
-1.56593e-09
-1.05139e-08
-6.95327e-09
-1.99932e-07
1.09171e-06
-3.76987e-07
9.27233e-07
-5.25824e-07
7.2849e-07
-6.4845e-07
5.5987e-07
-7.49777e-07
4.40117e-07
-8.34449e-07
3.59428e-07
-9.0583e-07
3.0266e-07
-9.66239e-07
2.59517e-07
-1.01738e-06
2.24953e-07
-1.06059e-06
1.96909e-07
-1.097e-06
1.74273e-07
-1.12743e-06
1.55823e-07
-1.15246e-06
1.40166e-07
-1.17242e-06
1.25844e-07
-1.18746e-06
1.1167e-07
-1.19763e-06
9.66246e-08
-1.20289e-06
7.99503e-08
-1.20324e-06
6.13648e-08
-1.19859e-06
4.06358e-08
-1.18879e-06
1.75233e-08
-1.17351e-06
-8.32657e-09
-1.15228e-06
-3.74154e-08
-1.12443e-06
-7.02367e-08
-1.08925e-06
-1.07029e-07
-1.04593e-06
-1.47742e-07
-9.93785e-07
-1.91735e-07
-9.32271e-07
-2.38102e-07
-8.61118e-07
-2.85371e-07
-7.80357e-07
-3.32028e-07
-6.90551e-07
-3.76158e-07
-5.93104e-07
-4.1568e-07
-4.90941e-07
-4.47442e-07
-3.86404e-07
-4.72223e-07
-2.82077e-07
-4.89007e-07
-1.81228e-07
-4.95678e-07
-8.783e-08
-4.89149e-07
-6.30572e-09
-4.65468e-07
5.90792e-08
-4.20455e-07
1.04871e-07
-3.50888e-07
1.28283e-07
-2.54624e-07
1.28283e-07
-1.28283e-07
1.02372e-07
-3.78951e-09
6.5672e-08
5.75845e-08
3.52652e-08
5.36967e-08
1.58882e-08
2.73866e-08
5.19663e-09
5.67471e-09
6.84348e-10
-6.00161e-09
-6.26892e-09
-2.05296e-07
1.297e-06
-3.88681e-07
1.11062e-06
-5.44997e-07
8.84807e-07
-6.75587e-07
6.9046e-07
-7.84604e-07
5.49134e-07
-8.76156e-07
4.50981e-07
-9.53296e-07
3.79801e-07
-1.0182e-06
3.24423e-07
-1.07253e-06
2.79277e-07
-1.11763e-06
2.4201e-07
-1.15463e-06
2.11281e-07
-1.18442e-06
1.85609e-07
-1.20759e-06
1.63337e-07
-1.22452e-06
1.4277e-07
-1.23543e-06
1.22586e-07
-1.24048e-06
1.01675e-07
-1.23975e-06
7.92175e-08
-1.2333e-06
5.49125e-08
-1.22109e-06
2.84295e-08
-1.20293e-06
-6.35579e-10
-1.17842e-06
-3.2842e-08
-1.14692e-06
-6.89086e-08
-1.10767e-06
-1.09492e-07
-1.0598e-06
-1.54892e-07
-1.00246e-06
-2.05091e-07
-9.34921e-07
-2.5927e-07
-8.56724e-07
-3.16298e-07
-7.67838e-07
-3.74257e-07
-6.68741e-07
-4.31125e-07
-5.60745e-07
-4.84155e-07
-4.46086e-07
-5.30338e-07
-3.2704e-07
-5.66488e-07
-2.07431e-07
-5.91833e-07
-9.18015e-08
-6.04636e-07
1.47402e-08
-6.0222e-07
1.06852e-07
-5.81261e-07
1.79647e-07
-5.38263e-07
2.29476e-07
-4.70283e-07
2.54624e-07
-3.76037e-07
2.54624e-07
-2.54624e-07
2.31212e-07
-1.04871e-07
1.84185e-07
4.32371e-08
1.25958e-07
1.15812e-07
7.6032e-08
1.03623e-07
4.02595e-08
6.31591e-08
1.69853e-08
2.89489e-08
4.07793e-09
6.90571e-09
-2.191e-09
-2.09405e-07
1.50641e-06
-3.97715e-07
1.29893e-06
-5.59818e-07
1.04691e-06
-6.96481e-07
8.27123e-07
-8.11246e-07
6.639e-07
-9.0781e-07
5.47545e-07
-9.88979e-07
4.60969e-07
-1.05679e-06
3.92232e-07
-1.11282e-06
3.35306e-07
-1.1584e-06
2.87589e-07
-1.19465e-06
2.47537e-07
-1.22247e-06
2.13427e-07
-1.24249e-06
1.83354e-07
-1.25512e-06
1.55403e-07
-1.26068e-06
1.28143e-07
-1.25939e-06
1.00387e-07
-1.25141e-06
7.12388e-08
-1.23684e-06
4.0337e-08
-1.21559e-06
7.18514e-09
-1.18738e-06
-2.88523e-08
-1.15164e-06
-6.85766e-08
-1.10762e-06
-1.12928e-07
-1.05443e-06
-1.62683e-07
-9.91198e-07
-2.18126e-07
-9.17109e-07
-2.7918e-07
-8.31677e-07
-3.44701e-07
-7.34765e-07
-4.13211e-07
-6.26895e-07
-4.82127e-07
-5.09248e-07
-5.48772e-07
-3.84052e-07
-6.09351e-07
-2.54494e-07
-6.59896e-07
-1.24296e-07
-6.96686e-07
1.4744e-09
-7.17603e-07
1.1709e-07
-7.20252e-07
2.16781e-07
-7.0191e-07
2.95392e-07
-6.59873e-07
3.49143e-07
-5.92013e-07
3.76037e-07
-4.97177e-07
3.76037e-07
-3.76037e-07
3.50888e-07
-2.29476e-07
3.05097e-07
-5.9079e-08
2.44321e-07
1.04013e-07
1.75594e-07
1.84539e-07
1.13028e-07
1.66189e-07
6.37575e-08
1.12429e-07
2.87339e-08
6.39725e-08
7.49491e-09
2.81447e-08
5.30391e-09
-2.1271e-07
1.71912e-06
-4.04949e-07
1.49117e-06
-5.71556e-07
1.21352e-06
-7.12741e-07
9.68308e-07
-8.31534e-07
7.82693e-07
-9.31344e-07
6.47355e-07
-1.01482e-06
5.44449e-07
-1.08391e-06
4.61316e-07
-1.14011e-06
3.91504e-07
-1.1847e-06
3.32187e-07
-1.21881e-06
2.81643e-07
-1.24331e-06
2.37928e-07
-1.25886e-06
1.98909e-07
-1.26593e-06
1.62467e-07
-1.26487e-06
1.27084e-07
-1.25598e-06
9.14945e-08
-1.23942e-06
5.46795e-08
-1.21525e-06
1.61695e-08
-1.1833e-06
-2.47687e-08
-1.1431e-06
-6.90503e-08
-1.09396e-06
-1.17716e-07
-1.03501e-06
-1.71872e-07
-9.65383e-07
-2.32314e-07
-8.84351e-07
-2.99158e-07
-7.91405e-07
-3.72126e-07
-6.8657e-07
-4.49536e-07
-5.70376e-07
-5.29405e-07
-4.44239e-07
-6.08264e-07
-3.1027e-07
-6.82741e-07
-1.71798e-07
-7.47822e-07
-3.31968e-08
-7.98498e-07
1.00353e-07
-8.30237e-07
2.2292e-07
-8.4017e-07
3.28467e-07
-8.25798e-07
4.11682e-07
-7.85126e-07
4.68639e-07
-7.16829e-07
4.97178e-07
-6.20552e-07
4.97177e-07
-4.97177e-07
4.70284e-07
-3.49143e-07
4.20455e-07
-1.79647e-07
3.5507e-07
6.30599e-09
2.8324e-07
1.75843e-07
2.09628e-07
2.5815e-07
1.403e-07
2.35517e-07
8.19323e-08
1.70797e-07
3.80297e-08
1.07875e-07
1.0202e-08
5.59724e-08
1.5506e-08
-2.15328e-07
1.93444e-06
-4.10672e-07
1.68651e-06
-5.80745e-07
1.38359e-06
-7.25165e-07
1.11273e-06
-8.46481e-07
9.04009e-07
-9.47901e-07
7.48774e-07
-1.03202e-06
6.28566e-07
-1.10073e-06
5.30033e-07
-1.15552e-06
4.46288e-07
-1.19762e-06
3.74283e-07
-1.22811e-06
3.12136e-07
-1.24788e-06
2.57701e-07
-1.25761e-06
2.08634e-07
-1.25776e-06
1.62623e-07
-1.24875e-06
1.18073e-07
-1.23087e-06
7.3617e-08
-1.20424e-06
2.80508e-08
-1.16882e-06
-1.92525e-08
-1.12427e-06
-6.93175e-08
-1.06998e-06
-1.23348e-07
-1.00513e-06
-1.82558e-07
-9.28907e-07
-2.481e-07
-8.40606e-07
-3.20615e-07
-7.39931e-07
-3.99833e-07
-6.26958e-07
-4.851e-07
-5.02568e-07
-5.73926e-07
-3.6825e-07
-6.63723e-07
-2.26654e-07
-7.4986e-07
-8.08837e-08
-8.28511e-07
6.46435e-08
-8.93349e-07
2.04612e-07
-9.38466e-07
3.32944e-07
-9.58569e-07
4.43515e-07
-9.50741e-07
5.30742e-07
-9.13025e-07
5.90504e-07
-8.44888e-07
6.20553e-07
-7.46878e-07
6.20553e-07
-6.20552e-07
5.92014e-07
-4.68638e-07
5.38263e-07
-2.95392e-07
4.65468e-07
-1.06852e-07
3.83943e-07
8.78303e-08
3.0427e-07
2.55517e-07
2.28547e-07
3.33873e-07
1.56419e-07
3.07644e-07
9.3136e-08
2.3408e-07
4.38468e-08
1.57164e-07
1.18795e-08
8.79397e-08
2.73854e-08
-2.17164e-07
2.15161e-06
-4.14786e-07
1.88413e-06
-5.87392e-07
1.5562e-06
-7.33943e-07
1.25928e-06
-8.5647e-07
1.02654e-06
-9.58003e-07
8.50308e-07
-1.04115e-06
7.11718e-07
-1.10787e-06
5.96747e-07
-1.15962e-06
4.98038e-07
-1.19763e-06
4.12296e-07
-1.22298e-06
3.37481e-07
-1.23653e-06
2.71257e-07
-1.23897e-06
2.11076e-07
-1.23078e-06
1.5443e-07
-1.21235e-06
9.96477e-08
-1.18395e-06
4.52171e-08
-1.14558e-06
-1.03262e-08
-1.09704e-06
-6.77946e-08
-1.03783e-06
-1.28523e-07
-9.67227e-07
-1.93952e-07
-8.84456e-07
-2.65328e-07
-7.88884e-07
-3.43672e-07
-6.80265e-07
-4.29234e-07
-5.59014e-07
-5.21084e-07
-4.26058e-07
-6.18056e-07
-2.83474e-07
-7.1651e-07
-1.33824e-07
-8.13373e-07
1.87078e-08
-9.02392e-07
1.70013e-07
-9.79817e-07
3.14842e-07
-1.03818e-06
4.47627e-07
-1.07125e-06
5.62213e-07
-1.07315e-06
6.53025e-07
-1.04155e-06
7.15443e-07
-9.75444e-07
7.46879e-07
-8.76323e-07
7.46878e-07
-7.46878e-07
7.1683e-07
-5.90504e-07
6.59873e-07
-4.11681e-07
5.81261e-07
-2.1678e-07
4.89149e-07
-1.47396e-08
3.95751e-07
1.81228e-07
3.11301e-07
3.39967e-07
2.34979e-07
4.10196e-07
1.62573e-07
3.8005e-07
9.77302e-08
2.98922e-07
4.62681e-08
2.08626e-07
1.25528e-08
1.21655e-07
3.99383e-08
-2.18023e-07
2.36963e-06
-4.16979e-07
2.08309e-06
-5.91178e-07
1.7304e-06
-7.38851e-07
1.40695e-06
-8.61421e-07
1.14911e-06
-9.61708e-07
9.50595e-07
-1.04237e-06
7.92384e-07
-1.10547e-06
6.59843e-07
-1.15254e-06
5.45106e-07
-1.18483e-06
4.44584e-07
-1.20341e-06
3.56062e-07
-1.20916e-06
2.77008e-07
-1.20275e-06
2.0467e-07
-1.18464e-06
1.36314e-07
-1.15517e-06
7.01828e-08
-1.11452e-06
4.56978e-09
-1.06252e-06
-6.23273e-08
-9.98828e-07
-1.31489e-07
-9.22829e-07
-2.04522e-07
-8.33798e-07
-2.82983e-07
-7.31189e-07
-3.67938e-07
-6.14811e-07
-4.6005e-07
-4.85104e-07
-5.58941e-07
-3.43508e-07
-6.6268e-07
-1.91899e-07
-7.69665e-07
-3.38943e-08
-8.74514e-07
1.26876e-07
-9.74143e-07
2.85057e-07
-1.06057e-06
4.34544e-07
-1.1293e-06
5.69882e-07
-1.17352e-06
6.86187e-07
-1.18756e-06
7.78999e-07
-1.16597e-06
8.4357e-07
-1.10612e-06
8.76324e-07
-1.0082e-06
8.76324e-07
-8.76323e-07
8.44889e-07
-7.15442e-07
7.85126e-07
-5.30741e-07
7.01911e-07
-3.28466e-07
6.0222e-07
-1.17089e-07
4.95678e-07
9.18021e-08
3.94829e-07
2.82078e-07
3.08082e-07
4.26713e-07
2.32139e-07
4.86139e-07
1.61048e-07
4.51141e-07
9.70753e-08
3.62895e-07
4.59656e-08
2.59736e-07
1.24304e-08
1.5519e-07
5.23686e-08
-2.17661e-07
2.58729e-06
-4.16821e-07
2.28225e-06
-5.91583e-07
1.90516e-06
-7.39382e-07
1.55475e-06
-8.60917e-07
1.27064e-06
-9.58708e-07
1.04839e-06
-1.03545e-06
8.6913e-07
-1.09336e-06
7.17746e-07
-1.13408e-06
5.85831e-07
-1.15895e-06
4.69449e-07
-1.16906e-06
3.66174e-07
-1.16531e-06
2.73257e-07
-1.14835e-06
1.87714e-07
-1.11858e-06
1.06536e-07
-1.07626e-06
2.78695e-08
-1.02145e-06
-5.02386e-08
-9.53793e-07
-1.29988e-07
-8.72847e-07
-2.12434e-07
-7.78013e-07
-2.99356e-07
-6.68764e-07
-3.92231e-07
-5.45016e-07
-4.91685e-07
-4.07281e-07
-5.97785e-07
-2.56832e-07
-7.09391e-07
-9.64062e-08
-8.23105e-07
7.11847e-08
-9.37256e-07
2.40915e-07
-1.04424e-06
4.06428e-07
-1.13966e-06
5.61976e-07
-1.21612e-06
7.00738e-07
-1.26806e-06
8.1841e-07
-1.29119e-06
9.1081e-07
-1.27996e-06
9.75e-07
-1.23016e-06
1.0082e-06
-1.13932e-06
1.0082e-06
-1.0082e-06
9.75444e-07
-8.43569e-07
9.13026e-07
-6.53024e-07
8.25799e-07
-4.43514e-07
7.20252e-07
-2.22919e-07
6.04637e-07
-1.47359e-09
4.89007e-07
2.07431e-07
3.84681e-07
3.86404e-07
2.97542e-07
5.13853e-07
2.22794e-07
5.60887e-07
1.54109e-07
5.19827e-07
9.26892e-08
4.24314e-07
4.37349e-08
3.0869e-07
1.17558e-08
1.87169e-07
6.41244e-08
-2.15821e-07
2.80311e-06
-4.13837e-07
2.48027e-06
-5.87979e-07
2.0793e-06
-7.34847e-07
1.70162e-06
-8.54294e-07
1.39009e-06
-9.48415e-07
1.14251e-06
-1.01988e-06
9.40594e-07
-1.07105e-06
7.68917e-07
-1.10376e-06
6.18541e-07
-1.11944e-06
4.85133e-07
-1.11929e-06
3.66017e-07
-1.10421e-06
2.5818e-07
-1.07485e-06
1.58352e-07
-1.03149e-06
6.31768e-08
-9.74333e-07
-2.92847e-08
-9.03303e-07
-1.21269e-07
-8.17884e-07
-2.15406e-07
-7.17693e-07
-3.12625e-07
-6.02318e-07
-4.14732e-07
-4.71669e-07
-5.2288e-07
-3.26378e-07
-6.36976e-07
-1.67885e-07
-7.56278e-07
1.49301e-09
-8.78769e-07
1.78089e-07
-9.99701e-07
3.5571e-07
-1.11488e-06
5.28142e-07
-1.21668e-06
6.87659e-07
-1.29917e-06
8.29602e-07
-1.35806e-06
9.49081e-07
-1.38754e-06
1.04244e-06
-1.38455e-06
1.10666e-06
-1.34418e-06
1.13932e-06
-1.26282e-06
1.13932e-06
-1.13932e-06
1.10613e-06
-9.74999e-07
1.04155e-06
-7.78997e-07
9.50742e-07
-5.62212e-07
8.40171e-07
-3.32943e-07
7.17604e-07
-1.00352e-07
5.91833e-07
1.24297e-07
4.72224e-07
3.27041e-07
3.67686e-07
4.90942e-07
2.8161e-07
5.99929e-07
2.0886e-07
6.33636e-07
1.4347e-07
5.85217e-07
8.58011e-08
4.81983e-07
4.02364e-08
3.54255e-07
1.07281e-08
2.16678e-07
7.48525e-08
-2.12256e-07
3.01537e-06
-4.07548e-07
2.67556e-06
-5.79692e-07
2.25144e-06
-7.24442e-07
1.84637e-06
-8.40705e-07
1.50635e-06
-9.29999e-07
1.2318e-06
-9.9486e-07
1.00545e-06
-1.03778e-06
8.11836e-07
-1.06078e-06
6.41543e-07
-1.06546e-06
4.89811e-07
-1.05312e-06
3.53677e-07
-1.02475e-06
2.29807e-07
-9.80954e-07
1.1456e-07
-9.21918e-07
4.14077e-09
-8.47786e-07
-1.03417e-07
-7.58433e-07
-2.10621e-07
-6.53258e-07
-3.20581e-07
-5.32165e-07
-4.33718e-07
-3.95161e-07
-5.51736e-07
-2.42801e-07
-6.7524e-07
-7.67702e-08
-8.03007e-07
1.00688e-07
-9.33737e-07
2.84508e-07
-1.06259e-06
4.68879e-07
-1.18407e-06
6.45047e-07
-1.29105e-06
8.07454e-07
-1.37908e-06
9.50702e-07
-1.44242e-06
1.07094e-06
-1.4783e-06
1.16514e-06
-1.48174e-06
1.22989e-06
-1.4493e-06
1.26282e-06
-1.37711e-06
1.26282e-06
-1.26282e-06
1.23016e-06
-1.10666e-06
1.16597e-06
-9.10808e-07
1.07316e-06
-6.86186e-07
9.58569e-07
-4.47626e-07
8.30237e-07
-2.04611e-07
6.96687e-07
3.31979e-08
5.66489e-07
2.54495e-07
4.47443e-07
4.46087e-07
3.4528e-07
5.93105e-07
2.61383e-07
6.83826e-07
1.91506e-07
7.03513e-07
1.3032e-07
6.46403e-07
7.73253e-08
5.34978e-07
3.59724e-08
3.95608e-07
9.49622e-09
2.43154e-07
8.43488e-08
-2.06733e-07
3.2221e-06
-3.97489e-07
2.86632e-06
-5.66033e-07
2.41999e-06
-7.07298e-07
1.98764e-06
-8.19163e-07
1.61822e-06
-9.02425e-07
1.31506e-06
-9.59346e-07
1.06238e-06
-9.92475e-07
8.44965e-07
-1.00402e-06
6.53089e-07
-9.95773e-07
4.81563e-07
-9.69204e-07
3.27108e-07
-9.25407e-07
1.8601e-07
-8.6502e-07
5.41731e-08
-7.88087e-07
-7.27924e-08
-6.94782e-07
-1.96721e-07
-5.8514e-07
-3.20264e-07
-4.58543e-07
-4.47178e-07
-3.15476e-07
-5.76785e-07
-1.56731e-07
-7.10481e-07
1.64592e-08
-8.4843e-07
2.00485e-07
-9.87032e-07
3.90138e-07
-1.12339e-06
5.77884e-07
-1.25033e-06
7.5652e-07
-1.36271e-06
9.19888e-07
-1.45441e-06
1.06363e-06
-1.52282e-06
1.18455e-06
-1.56335e-06
1.27896e-06
-1.5727e-06
1.34398e-06
-1.54676e-06
1.37711e-06
-1.48244e-06
1.37711e-06
-1.37711e-06
1.34418e-06
-1.22988e-06
1.27996e-06
-1.04244e-06
1.18756e-06
-8.18409e-07
1.07125e-06
-5.6988e-07
9.38467e-07
-3.1484e-07
7.98499e-07
-6.46421e-08
6.59897e-07
1.718e-07
5.30339e-07
3.84053e-07
4.15681e-07
5.60745e-07
3.18234e-07
6.90552e-07
2.37922e-07
7.64138e-07
1.72191e-07
7.69243e-07
1.16112e-07
7.02482e-07
6.83319e-08
5.82758e-07
3.15137e-08
4.32426e-07
8.22613e-09
2.66441e-07
9.25749e-08
-1.99038e-07
3.42114e-06
-3.83221e-07
3.0505e-06
-5.46321e-07
2.58309e-06
-6.82502e-07
2.12382e-06
-7.88569e-07
1.72428e-06
-8.64462e-07
1.39096e-06
-9.12005e-07
1.10992e-06
-9.33706e-07
8.66666e-07
-9.31934e-07
6.51316e-07
-9.08704e-07
4.58333e-07
-8.65705e-07
2.84109e-07
-8.04201e-07
1.24507e-07
-7.24967e-07
-2.50609e-08
-6.27928e-07
-1.69832e-07
-5.13372e-07
-3.11277e-07
-3.81775e-07
-4.51861e-07
-2.32856e-07
-5.96097e-07
-6.7667e-08
-7.41974e-07
1.11363e-07
-8.89511e-07
3.00336e-07
-1.0374e-06
4.93459e-07
-1.18016e-06
6.82764e-07
-1.31269e-06
8.61957e-07
-1.42953e-06
1.02533e-06
-1.52608e-06
1.16939e-06
-1.59847e-06
1.29019e-06
-1.64362e-06
1.38452e-06
-1.65768e-06
1.44933e-06
-1.63751e-06
1.48244e-06
-1.57987e-06
1.48244e-06
-1.48244e-06
1.4493e-06
-1.34397e-06
1.38455e-06
-1.16514e-06
1.29119e-06
-9.49079e-07
1.17352e-06
-7.00736e-07
1.03818e-06
-4.34542e-07
8.9335e-07
-1.70011e-07
7.47823e-07
8.08852e-08
6.09351e-07
3.10271e-07
4.84156e-07
5.09249e-07
3.76159e-07
6.68742e-07
2.86352e-07
7.80358e-07
2.13591e-07
8.369e-07
1.54048e-07
8.28786e-07
1.03109e-07
7.5342e-07
6.02452e-08
6.25622e-07
2.76148e-08
4.65057e-07
7.17218e-09
2.86884e-07
9.97471e-08
-1.88979e-07
3.61012e-06
-3.64331e-07
3.22585e-06
-5.19893e-07
2.73865e-06
-6.49117e-07
2.25304e-06
-7.47723e-07
1.82289e-06
-8.1467e-07
1.4579e-06
-8.51178e-07
1.14643e-06
-8.59598e-07
8.75085e-07
-8.42436e-07
6.34154e-07
-8.01979e-07
4.17877e-07
-7.40208e-07
2.22337e-07
-6.58595e-07
4.2894e-08
-5.58239e-07
-1.25417e-07
-4.39207e-07
-2.88864e-07
-3.01928e-07
-4.48556e-07
-1.47069e-07
-6.0672e-07
2.32677e-08
-7.66434e-07
2.06869e-07
-9.25576e-07
3.99077e-07
-1.08172e-06
5.93066e-07
-1.23139e-06
7.82761e-07
-1.36985e-06
9.61502e-07
-1.49144e-06
1.12473e-06
-1.59276e-06
1.26836e-06
-1.6697e-06
1.38876e-06
-1.71888e-06
1.48255e-06
-1.73741e-06
1.547e-06
-1.72213e-06
1.57987e-06
-1.67039e-06
1.57987e-06
-1.57987e-06
1.54676e-06
-1.44933e-06
1.48174e-06
-1.27895e-06
1.38755e-06
-1.07094e-06
1.26807e-06
-8.296e-07
1.1293e-06
-5.61974e-07
9.79818e-07
-2.85055e-07
8.28512e-07
-1.87061e-08
6.82742e-07
2.26655e-07
5.48773e-07
4.4424e-07
4.31126e-07
6.26896e-07
3.32029e-07
7.67839e-07
2.51267e-07
8.61119e-07
1.86744e-07
9.01423e-07
1.34154e-07
8.81377e-07
8.92921e-08
7.98282e-07
5.18547e-08
6.6306e-07
2.36241e-08
4.93287e-07
6.09555e-09
3.04412e-07
1.05843e-07
-1.76375e-07
3.78649e-06
-3.40432e-07
3.38991e-06
-4.86093e-07
2.88431e-06
-6.06168e-07
2.37311e-06
-6.953e-07
1.91202e-06
-7.51363e-07
1.51397e-06
-7.74808e-07
1.16987e-06
-7.67724e-07
8.68001e-07
-7.32756e-07
5.99186e-07
-6.72537e-07
3.57658e-07
-5.89637e-07
1.39437e-07
-4.85687e-07
-6.10561e-08
-3.61979e-07
-2.49125e-07
-2.2001e-07
-4.30834e-07
-6.06246e-08
-6.07941e-07
1.14735e-07
-7.82079e-07
3.00873e-07
-9.52572e-07
4.93915e-07
-1.11862e-06
6.88227e-07
-1.27603e-06
8.77204e-07
-1.42037e-06
1.05541e-06
-1.54805e-06
1.21824e-06
-1.65427e-06
1.36127e-06
-1.73579e-06
1.48087e-06
-1.7893e-06
1.57395e-06
-1.81196e-06
1.6378e-06
-1.80126e-06
1.67039e-06
-1.75472e-06
1.67039e-06
-1.67039e-06
1.63752e-06
-1.547e-06
1.57271e-06
-1.38452e-06
1.4783e-06
-1.18455e-06
1.35807e-06
-9.507e-07
1.21612e-06
-6.87656e-07
1.06057e-06
-4.06426e-07
9.02393e-07
-1.26874e-07
7.49861e-07
1.33826e-07
6.08265e-07
3.68251e-07
4.82128e-07
5.70377e-07
3.74258e-07
7.34766e-07
2.85372e-07
8.56725e-07
2.14219e-07
9.32272e-07
1.5807e-07
9.57572e-07
1.12697e-07
9.2675e-07
7.44196e-08
8.36559e-07
4.28675e-08
6.94612e-07
1.93637e-08
5.16791e-07
4.94561e-09
3.1883e-07
1.10788e-07
-1.61058e-07
3.94755e-06
-3.11141e-07
3.53999e-06
-4.44253e-07
3.01742e-06
-5.52618e-07
2.48148e-06
-6.29814e-07
1.98922e-06
-6.72552e-07
1.5567e-06
-6.80368e-07
1.17769e-06
-6.55006e-07
8.42639e-07
-5.99297e-07
5.43477e-07
-5.16471e-07
2.74831e-07
-4.10515e-07
3.34814e-08
-2.83553e-07
-1.88018e-07
-1.37027e-07
-3.95651e-07
2.56925e-08
-5.93553e-07
2.02673e-07
-7.84922e-07
3.90619e-07
-9.70025e-07
5.84111e-07
-1.14606e-06
7.7782e-07
-1.31233e-06
9.66246e-07
-1.46446e-06
1.14411e-06
-1.59823e-06
1.30624e-06
-1.71018e-06
1.44848e-06
-1.79651e-06
1.56718e-06
-1.85449e-06
1.65934e-06
-1.88147e-06
1.72251e-06
-1.87513e-06
1.75472e-06
-1.83347e-06
1.75472e-06
-1.75472e-06
1.72213e-06
-1.6378e-06
1.65768e-06
-1.48255e-06
1.56335e-06
-1.29019e-06
1.44242e-06
-1.06362e-06
1.29917e-06
-8.07452e-07
1.13966e-06
-5.2814e-07
9.74144e-07
-2.40913e-07
8.13374e-07
3.38963e-08
6.63724e-07
2.83476e-07
5.29406e-07
5.02569e-07
4.13212e-07
6.86571e-07
3.16299e-07
8.31679e-07
2.38102e-07
9.34922e-07
1.76588e-07
9.93786e-07
1.28713e-07
1.00545e-06
9.05824e-08
9.6488e-07
5.90427e-08
8.68099e-07
3.35657e-08
7.20089e-07
1.49538e-08
5.35403e-07
3.755e-09
3.30029e-07
1.14543e-07
-1.42854e-07
4.0904e-06
-2.76066e-07
3.6732e-06
-3.93666e-07
3.13502e-06
-4.87322e-07
2.57513e-06
-5.49569e-07
2.05147e-06
-5.75896e-07
1.58303e-06
-5.64818e-07
1.16661e-06
-5.17743e-07
7.95564e-07
-4.37931e-07
4.63665e-07
-3.31516e-07
1.68416e-07
-2.03094e-07
-9.49399e-08
-5.54499e-08
-3.35663e-07
1.09287e-07
-5.60388e-07
2.87548e-07
-7.71814e-07
4.75678e-07
-9.73052e-07
6.68945e-07
-1.16329e-06
8.62532e-07
-1.33965e-06
1.0506e-06
-1.5004e-06
1.22773e-06
-1.64158e-06
1.38907e-06
-1.75958e-06
1.53032e-06
-1.85142e-06
1.64802e-06
-1.91421e-06
1.73924e-06
-1.94571e-06
1.80166e-06
-1.94388e-06
1.83347e-06
-1.90694e-06
1.83347e-06
-1.83347e-06
1.80126e-06
-1.72251e-06
1.73741e-06
-1.57395e-06
1.64362e-06
-1.38876e-06
1.52282e-06
-1.16938e-06
1.37908e-06
-9.19885e-07
1.21668e-06
-6.45045e-07
1.04425e-06
-3.55708e-07
8.74515e-07
-7.11826e-08
7.16511e-07
1.91901e-07
5.73927e-07
4.26059e-07
4.49537e-07
6.2696e-07
3.44702e-07
7.91406e-07
2.5927e-07
9.17111e-07
1.91736e-07
1.00246e-06
1.39594e-07
1.04593e-06
9.97443e-08
1.0453e-06
6.87212e-08
9.95903e-07
4.38307e-08
8.92989e-07
2.43668e-08
7.39553e-07
1.05986e-08
5.49171e-07
2.58217e-09
3.38046e-07
1.17125e-07
-1.21572e-07
4.21198e-06
-2.3477e-07
3.7864e-06
-3.33539e-07
3.23379e-06
-4.08983e-07
2.65058e-06
-4.52607e-07
2.09509e-06
-4.58686e-07
1.58911e-06
-4.24742e-07
1.13267e-06
-3.52168e-07
7.2299e-07
-2.47828e-07
3.59325e-07
-1.20414e-07
4.10025e-08
2.69318e-08
-2.42286e-07
1.91266e-07
-4.99997e-07
3.69293e-07
-7.38415e-07
5.57313e-07
-9.59834e-07
7.50399e-07
-1.16614e-06
9.43189e-07
-1.35608e-06
1.13045e-06
-1.52691e-06
1.30663e-06
-1.67658e-06
1.46687e-06
-1.80183e-06
1.60704e-06
-1.89975e-06
1.72364e-06
-1.96801e-06
1.81389e-06
-2.00446e-06
1.87556e-06
-2.00738e-06
1.90694e-06
-1.97527e-06
1.90694e-06
-1.90694e-06
1.87513e-06
-1.80166e-06
1.81196e-06
-1.65934e-06
1.71888e-06
-1.48086e-06
1.59847e-06
-1.26835e-06
1.45441e-06
-1.02533e-06
1.29105e-06
-7.56517e-07
1.11488e-06
-4.68876e-07
9.37258e-07
-1.78087e-07
7.69667e-07
9.64083e-08
6.18057e-07
3.4351e-07
4.85101e-07
5.59016e-07
3.72127e-07
7.39933e-07
2.79181e-07
8.84352e-07
2.05092e-07
9.912e-07
1.47743e-07
1.05981e-06
1.04424e-07
1.08925e-06
7.21623e-08
1.07756e-06
4.79281e-08
1.02014e-06
2.93951e-08
9.11522e-07
1.56644e-08
7.53283e-07
6.49546e-09
5.5834e-07
1.48376e-09
3.43057e-07
1.18609e-07
-9.69799e-08
4.30896e-06
-1.8673e-07
3.87615e-06
-2.62938e-07
3.31e-06
-3.16105e-07
2.70374e-06
-3.36704e-07
2.11569e-06
-3.17997e-07
1.5704e-06
-2.5686e-07
1.07153e-06
-1.58092e-07
6.24222e-07
-3.344e-08
2.34673e-07
1.11411e-07
-1.03849e-07
2.7386e-07
-4.04734e-07
4.50552e-07
-6.76689e-07
6.37149e-07
-9.25013e-07
8.28955e-07
-1.15164e-06
1.02048e-06
-1.35767e-06
1.2062e-06
-1.5418e-06
1.38099e-06
-1.7017e-06
1.53989e-06
-1.83547e-06
1.67874e-06
-1.94068e-06
1.79416e-06
-2.01517e-06
1.88338e-06
-2.05724e-06
1.94429e-06
-2.06537e-06
1.97527e-06
-2.03836e-06
1.97527e-06
-1.97527e-06
1.94388e-06
-1.87555e-06
1.88147e-06
-1.73924e-06
1.7893e-06
-1.56717e-06
1.6697e-06
-1.36127e-06
1.52608e-06