/*--------------------------------*- C++ -*----------------------------------*\
| =========                 |                                                 |
| \\      /  F ield         | OpenFOAM: The Open Source CFD Toolbox           |
|  \\    /   O peration     | Version:  2506                                  |
|   \\  /    A nd           | Website:  www.openfoam.com                      |
|    \\/     M anipulation  |                                                 |
\*---------------------------------------------------------------------------*/
FoamFile
{
    version     2.0;
    format      ascii;
    arch        "LSB;label=32;scalar=64";
    class       volSymmTensorField;
    location    "2137";
    object      Rij;
}
// * * * * * * * * * * * * * * * * * * * * * * * * * * * * * * * * * * * * * //

dimensions      [0 2 -2 0 0 0 0];

internalField   nonuniform List<symmTensor> 
2304
(
(8.84924e-06 -2.96294e-11 -7.55622e-08 8.84957e-06 2.85832e-10 8.84967e-06)
(9.0823e-06 -7.65017e-11 -7.85734e-08 9.08262e-06 8.11801e-10 9.08276e-06)
(9.42774e-06 -9.61627e-11 -8.31066e-08 9.42807e-06 1.23195e-09 9.42826e-06)
(9.77172e-06 -9.20659e-11 -8.77015e-08 9.77206e-06 1.54247e-09 9.77231e-06)
(1.00578e-05 -7.6488e-11 -9.15818e-08 1.00581e-05 1.76825e-09 1.00584e-05)
(1.02777e-05 -5.92409e-11 -9.45987e-08 1.0278e-05 1.9416e-09 1.02783e-05)
(1.04421e-05 -4.40819e-11 -9.68734e-08 1.04425e-05 2.08377e-09 1.04428e-05)
(1.05631e-05 -3.10784e-11 -9.8556e-08 1.05635e-05 2.20575e-09 1.05638e-05)
(1.06487e-05 -1.93597e-11 -9.975e-08 1.06491e-05 2.3123e-09 1.06494e-05)
(1.0704e-05 -8.40168e-12 -1.00522e-07 1.07044e-05 2.40641e-09 1.07048e-05)
(1.07331e-05 1.8252e-12 -1.00926e-07 1.07335e-05 2.49094e-09 1.07338e-05)
(1.07399e-05 1.1154e-11 -1.01016e-07 1.07403e-05 2.56874e-09 1.07407e-05)
(1.07284e-05 1.94963e-11 -1.00848e-07 1.07288e-05 2.64216e-09 1.07292e-05)
(1.07021e-05 2.69423e-11 -1.00471e-07 1.07025e-05 2.71269e-09 1.07028e-05)
(1.06636e-05 3.37138e-11 -9.99257e-08 1.0664e-05 2.78079e-09 1.06644e-05)
(1.0615e-05 4.00783e-11 -9.92394e-08 1.06154e-05 2.84594e-09 1.06157e-05)
(1.05574e-05 4.62831e-11 -9.84308e-08 1.05578e-05 2.90664e-09 1.05581e-05)
(1.04916e-05 5.24209e-11 -9.75112e-08 1.0492e-05 2.96075e-09 1.04923e-05)
(1.04182e-05 5.84108e-11 -9.64919e-08 1.04186e-05 3.00595e-09 1.04189e-05)
(1.03382e-05 6.41361e-11 -9.53863e-08 1.03385e-05 3.03983e-09 1.03388e-05)
(1.02525e-05 6.96321e-11 -9.42095e-08 1.02528e-05 3.05999e-09 1.02531e-05)
(1.0162e-05 7.52927e-11 -9.29728e-08 1.01623e-05 3.0639e-09 1.01626e-05)
(1.00666e-05 8.19898e-11 -9.16753e-08 1.00669e-05 3.04876e-09 1.00672e-05)
(9.96479e-06 9.10755e-11 -9.02967e-08 9.96511e-06 3.01164e-09 9.96544e-06)
(9.85322e-06 1.04219e-10 -8.87916e-08 9.85352e-06 2.94921e-09 9.85386e-06)
(9.72674e-06 1.23152e-10 -8.7093e-08 9.72702e-06 2.85804e-09 9.72737e-06)
(9.57872e-06 1.4944e-10 -8.51159e-08 9.57898e-06 2.73539e-09 9.57935e-06)
(9.40156e-06 1.84145e-10 -8.27663e-08 9.40179e-06 2.57989e-09 9.40218e-06)
(9.18752e-06 2.27493e-10 -7.99544e-08 9.18773e-06 2.39235e-09 9.18813e-06)
(8.92961e-06 2.78832e-10 -7.66074e-08 8.92979e-06 2.17585e-09 8.93021e-06)
(8.62219e-06 3.37278e-10 -7.26794e-08 8.62233e-06 1.93541e-09 8.62276e-06)
(8.2602e-06 4.03181e-10 -6.81433e-08 8.26031e-06 1.67297e-09 8.26074e-06)
(7.83695e-06 4.75987e-10 -6.29648e-08 7.83703e-06 1.39195e-09 7.83746e-06)
(7.34714e-06 5.52215e-10 -5.71456e-08 7.34719e-06 1.10258e-09 7.34761e-06)
(6.78824e-06 6.26203e-10 -5.07409e-08 6.78826e-06 8.18253e-10 6.78867e-06)
(6.16176e-06 6.89905e-10 -4.38722e-08 6.16176e-06 5.54734e-10 6.16213e-06)
(5.47519e-06 7.33058e-10 -3.67398e-08 5.47518e-06 3.28707e-10 5.4755e-06)
(4.74393e-06 7.44982e-10 -2.96247e-08 4.74392e-06 1.54692e-10 4.74416e-06)
(3.99194e-06 7.18181e-10 -2.28633e-08 3.99193e-06 4.05016e-11 3.9921e-06)
(3.24977e-06 6.52362e-10 -1.67909e-08 3.24978e-06 -1.67816e-11 3.24987e-06)
(2.54968e-06 5.56239e-10 -1.16675e-08 2.5497e-06 -3.09445e-11 2.54972e-06)
(1.91893e-06 4.45014e-10 -7.61744e-09 1.91895e-06 -2.29373e-11 1.91895e-06)
(1.37478e-06 3.33997e-10 -4.61815e-09 1.37479e-06 -1.11193e-11 1.37479e-06)
(9.24041e-07 2.33603e-10 -2.54244e-09 9.24047e-07 -3.66859e-12 9.24042e-07)
(5.66547e-07 1.4907e-10 -1.21723e-09 5.66549e-07 -7.32952e-13 5.66548e-07)
(2.98902e-07 8.24731e-11 -4.62959e-10 2.98903e-07 -5.09797e-14 2.98902e-07)
(1.17799e-07 3.47781e-11 -1.11592e-10 1.17799e-07 3.17928e-15 1.17799e-07)
(2.36251e-08 7.8648e-12 -7.8648e-12 2.36251e-08 -4.69219e-16 2.36251e-08)
(7.4486e-06 -4.42858e-10 -3.72317e-07 7.45642e-06 1.15412e-09 7.46209e-06)
(7.62608e-06 -1.13818e-09 -3.86203e-07 7.6341e-06 3.29648e-09 7.64042e-06)
(7.89687e-06 -1.42021e-09 -4.0748e-07 7.90522e-06 5.06076e-09 7.91252e-06)
(8.17768e-06 -1.34652e-09 -4.29608e-07 8.1864e-06 6.43689e-09 8.19466e-06)
(8.42365e-06 -1.10342e-09 -4.48948e-07 8.43275e-06 7.50458e-09 8.44177e-06)
(8.6242e-06 -8.37065e-10 -4.64606e-07 8.63362e-06 8.36774e-09 8.6432e-06)
(8.78343e-06 -6.02714e-10 -4.76921e-07 8.79314e-06 9.09578e-09 8.80312e-06)
(8.90762e-06 -4.00877e-10 -4.86423e-07 8.91754e-06 9.72596e-09 8.92783e-06)
(9.00131e-06 -2.18341e-10 -4.93493e-07 9.0114e-06 1.02755e-08 9.0219e-06)
(9.06769e-06 -4.72659e-11 -4.9839e-07 9.07789e-06 1.07561e-08 9.08853e-06)
(9.10962e-06 1.12658e-10 -5.01346e-07 9.11989e-06 1.11791e-08 9.13061e-06)
(9.13027e-06 2.58754e-10 -5.02616e-07 9.14057e-06 1.15558e-08 9.15131e-06)
(9.13275e-06 3.89568e-10 -5.02461e-07 9.14306e-06 1.18958e-08 9.15376e-06)
(9.11968e-06 5.06379e-10 -5.01106e-07 9.12996e-06 1.22049e-08 9.1406e-06)
(9.09263e-06 6.1247e-10 -4.98706e-07 9.10286e-06 1.24842e-08 9.1134e-06)
(9.05208e-06 7.11777e-10 -4.9534e-07 9.06223e-06 1.27308e-08 9.07265e-06)
(8.99752e-06 8.07841e-10 -4.91016e-07 9.00756e-06 1.29369e-08 9.01785e-06)
(8.92794e-06 9.01725e-10 -4.85705e-07 8.93784e-06 1.30927e-08 8.948e-06)
(8.84288e-06 9.91769e-10 -4.79409e-07 8.85261e-06 1.31886e-08 8.86262e-06)
(8.74312e-06 1.07584e-09 -4.72203e-07 8.75264e-06 1.32169e-08 8.76252e-06)
(8.63101e-06 1.1543e-09 -4.64248e-07 8.64029e-06 1.31726e-08 8.65004e-06)
(8.51019e-06 1.2332e-09 -4.55765e-07 8.5192e-06 1.30531e-08 8.52885e-06)
(8.38497e-06 1.32593e-09 -4.4699e-07 8.39369e-06 1.28569e-08 8.40327e-06)
(8.25874e-06 1.45316e-09 -4.38058e-07 8.26714e-06 1.25816e-08 8.27667e-06)
(8.13132e-06 1.63987e-09 -4.28897e-07 8.13937e-06 1.22204e-08 8.14889e-06)
(8.0008e-06 1.91189e-09 -4.19309e-07 8.00848e-06 1.17654e-08 8.01801e-06)
(7.86329e-06 2.29294e-09 -4.08963e-07 7.87056e-06 1.12088e-08 7.88012e-06)
(7.71293e-06 2.79989e-09 -3.97419e-07 7.71975e-06 1.05451e-08 7.72932e-06)
(7.54256e-06 3.43804e-09 -3.8419e-07 7.54889e-06 9.77402e-09 7.55841e-06)
(7.34462e-06 4.19997e-09 -3.68814e-07 7.35042e-06 8.90341e-09 7.35983e-06)
(7.11234e-06 5.07483e-09 -3.50938e-07 7.11754e-06 7.95163e-09 7.12679e-06)
(6.83983e-06 6.07109e-09 -3.30324e-07 6.84437e-06 6.92462e-09 6.8534e-06)
(6.51935e-06 7.18381e-09 -3.06669e-07 6.52319e-06 5.83129e-09 6.53191e-06)
(6.14316e-06 8.36259e-09 -2.79797e-07 6.14629e-06 4.70515e-09 6.15453e-06)
(5.70392e-06 9.51923e-09 -2.49719e-07 5.70637e-06 3.58801e-09 5.71394e-06)
(5.19586e-06 1.05192e-08 -2.16729e-07 5.19769e-06 2.53021e-09 5.20436e-06)
(4.61755e-06 1.11795e-08 -1.81551e-07 4.61887e-06 1.59097e-09 4.62441e-06)
(3.976e-06 1.12977e-08 -1.4548e-07 3.97694e-06 8.31926e-10 3.98117e-06)
(3.29036e-06 1.07214e-08 -1.10372e-07 3.29108e-06 3.00544e-10 3.29393e-06)
(2.59304e-06 9.43756e-09 -7.83815e-08 2.59361e-06 7.56542e-12 2.59523e-06)
(1.9262e-06 7.6243e-09 -5.14623e-08 1.92665e-06 -8.59676e-11 1.92736e-06)
(1.33337e-06 5.61032e-09 -3.08029e-08 1.33369e-06 -6.94985e-11 1.33391e-06)
(8.47793e-07 3.7346e-09 -1.64995e-08 8.47967e-07 -3.16576e-11 8.4801e-07)
(4.84909e-07 2.21929e-09 -7.68105e-09 4.84984e-07 -9.75058e-12 4.84987e-07)
(2.40863e-07 1.14087e-09 -2.94448e-09 2.40887e-07 -2.34891e-12 2.40887e-07)
(9.7958e-08 4.69242e-10 -8.26358e-10 9.79632e-08 -5.56362e-13 9.79635e-08)
(3.84127e-08 1.46891e-10 -1.46891e-10 3.84134e-08 -7.88472e-14 3.84134e-08)
(1.17799e-07 1.11592e-10 -3.47781e-11 1.17799e-07 3.17878e-15 1.17799e-07)
(4.57498e-05 -1.37828e-08 -6.66305e-06 4.59941e-05 1.60586e-08 4.61726e-05)
(4.6796e-05 -3.54195e-08 -6.8946e-06 4.70431e-05 4.628e-08 4.7235e-05)
(4.84037e-05 -4.42535e-08 -7.25073e-06 4.86551e-05 7.22233e-08 4.88665e-05)
(5.00872e-05 -4.21419e-08 -7.62346e-06 5.03436e-05 9.3727e-08 5.05733e-05)
(5.158e-05 -3.48381e-08 -7.95233e-06 5.18414e-05 1.11455e-07 5.20851e-05)
(5.28127e-05 -2.68089e-08 -8.22149e-06 5.30789e-05 1.26374e-07 5.33324e-05)
(5.38032e-05 -1.97376e-08 -8.43539e-06 5.40735e-05 1.39169e-07 5.43339e-05)
(5.45837e-05 -1.36413e-08 -8.60196e-06 5.48574e-05 1.50245e-07 5.51229e-05)
(5.51789e-05 -8.1208e-09 -8.72709e-06 5.54551e-05 1.59822e-07 5.57243e-05)
(5.56064e-05 -2.93952e-09 -8.81498e-06 5.58845e-05 1.68067e-07 5.61563e-05)
(5.58832e-05 1.91016e-09 -8.8695e-06 5.61626e-05 1.75146e-07 5.64359e-05)
(5.60281e-05 6.3452e-09 -8.89496e-06 5.63081e-05 1.81221e-07 5.65822e-05)
(5.60597e-05 1.03203e-08 -8.89569e-06 5.634e-05 1.86431e-07 5.6614e-05)
(5.59933e-05 1.38749e-08 -8.8754e-06 5.62735e-05 1.90863e-07 5.65468e-05)
(5.58374e-05 1.71107e-08 -8.83648e-06 5.6117e-05 1.9454e-07 5.63893e-05)
(5.55934e-05 2.01511e-08 -8.7799e-06 5.58717e-05 1.97431e-07 5.61428e-05)
(5.52558e-05 2.3108e-08 -8.70534e-06 5.55323e-05 1.9945e-07 5.5802e-05)
(5.48164e-05 2.6017e-08 -8.61185e-06 5.50903e-05 2.00488e-07 5.53586e-05)
(5.42708e-05 2.88276e-08 -8.49912e-06 5.45412e-05 2.00457e-07 5.48082e-05)
(5.36234e-05 3.14725e-08 -8.36832e-06 5.38895e-05 1.99313e-07 5.41553e-05)
(5.28903e-05 3.3959e-08 -8.22244e-06 5.31512e-05 1.97064e-07 5.34161e-05)
(5.20971e-05 3.64663e-08 -8.06586e-06 5.2352e-05 1.93758e-07 5.26165e-05)
(5.12754e-05 3.94008e-08 -7.90357e-06 5.15238e-05 1.89457e-07 5.17885e-05)
(5.04558e-05 4.34069e-08 -7.74069e-06 5.06971e-05 1.84223e-07 5.0963e-05)
(4.96381e-05 4.92471e-08 -7.57562e-06 4.98717e-05 1.77969e-07 5.01397e-05)
(4.88136e-05 5.77127e-08 -7.40524e-06 4.90389e-05 1.70598e-07 4.93099e-05)
(4.7961e-05 6.95424e-08 -7.22429e-06 4.81773e-05 1.61998e-07 4.84519e-05)
(4.70455e-05 8.528e-08 -7.02535e-06 4.72522e-05 1.52056e-07 4.75302e-05)
(4.6023e-05 1.05134e-07 -6.79975e-06 4.62192e-05 1.40716e-07 4.65e-05)
(4.48453e-05 1.28929e-07 -6.53891e-06 4.50301e-05 1.28068e-07 4.53121e-05)
(4.34681e-05 1.56358e-07 -6.2359e-06 4.36403e-05 1.14471e-07 4.39216e-05)
(4.18535e-05 1.87698e-07 -5.88589e-06 4.20112e-05 9.99545e-08 4.22903e-05)
(3.99516e-05 2.22826e-07 -5.48276e-06 4.00934e-05 8.45048e-08 4.03669e-05)
(3.77109e-05 2.60238e-07 -5.02214e-06 3.78356e-05 6.8504e-08 3.80987e-05)
(3.50789e-05 2.97265e-07 -4.50243e-06 3.5186e-05 5.2342e-08 3.54322e-05)
(3.20093e-05 3.29722e-07 -3.92631e-06 3.20987e-05 3.64958e-08 3.23204e-05)
(2.84796e-05 3.51739e-07 -3.30396e-06 2.85522e-05 2.17059e-08 2.87412e-05)
(2.45201e-05 3.5657e-07 -2.65641e-06 2.45774e-05 9.06079e-09 2.47266e-05)
(2.02413e-05 3.38803e-07 -2.0167e-06 2.02857e-05 -1.74882e-10 2.03914e-05)
(1.58477e-05 2.97402e-07 -1.4261e-06 1.58811e-05 -5.08864e-09 1.59455e-05)
(1.16191e-05 2.37839e-07 -9.24854e-07 1.16429e-05 -5.73991e-09 1.16749e-05)
(7.85827e-06 1.71259e-07 -5.4028e-07 7.87339e-06 -3.93279e-09 7.88596e-06)
(4.80204e-06 1.09338e-07 -2.76759e-07 4.81002e-06 -1.94534e-09 4.8139e-06)
(2.56661e-06 5.99212e-08 -1.1845e-07 2.56993e-06 -7.49136e-10 2.57087e-06)
(1.13e-06 2.58004e-08 -3.79111e-08 1.13098e-06 -2.13886e-10 1.13112e-06)
(3.63867e-07 6.70771e-09 -6.70771e-09 3.6401e-07 -2.80328e-11 3.6401e-07)
(9.7958e-08 8.26358e-10 -4.69241e-10 9.79635e-08 -5.56366e-13 9.79632e-08)
(2.98902e-07 4.62959e-10 -8.2473e-11 2.98902e-07 -5.09831e-14 2.98903e-07)
(0.000168777 -1.46246e-07 -4.55839e-05 0.000166589 6.42096e-08 0.000163503)
(0.000172524 -3.78721e-07 -4.69472e-05 0.000170082 1.91874e-07 0.000166815)
(0.000178293 -4.82506e-07 -4.90408e-05 0.000175455 3.18006e-07 0.000171895)
(0.000184352 -4.77137e-07 -5.12306e-05 0.000181094 4.40617e-07 0.000177203)
(0.000189744 -4.19638e-07 -5.31659e-05 0.000186116 5.5459e-07 0.000181909)
(0.000194211 -3.53623e-07 -5.47545e-05 0.000190282 6.56509e-07 0.000185804)
(0.000197808 -2.95443e-07 -5.60209e-05 0.000193643 7.45568e-07 0.000188943)
(0.000200645 -2.45359e-07 -5.70098e-05 0.000196299 8.2267e-07 0.000191426)
(0.00020281 -1.99612e-07 -5.77554e-05 0.00019833 8.8906e-07 0.000193328)
(0.000204365 -1.55986e-07 -5.82829e-05 0.000199794 9.45799e-07 0.000194705)
(0.000205375 -1.14453e-07 -5.86153e-05 0.00020075 9.93725e-07 0.000195611)
(0.000205906 -7.58573e-08 -5.87779e-05 0.00020126 1.03356e-06 0.000196103)
(0.000206027 -4.06806e-08 -5.87958e-05 0.000201388 1.06596e-06 0.00019624)
(0.000205792 -8.56865e-09 -5.869e-05 0.000201183 1.09144e-06 0.000196067)
(0.000205232 2.14706e-08 -5.84734e-05 0.000200672 1.11033e-06 0.000195609)
(0.000204351 5.06768e-08 -5.81499e-05 0.000199855 1.12281e-06 0.000194864)
(0.000203129 8.02193e-08 -5.77158e-05 0.000198709 1.1288e-06 0.000193811)
(0.000201532 1.10532e-07 -5.71633e-05 0.000197204 1.12819e-06 0.00019242)
(0.000199545 1.41189e-07 -5.64885e-05 0.00019532 1.12094e-06 0.00019067)
(0.00019718 1.7154e-07 -5.56968e-05 0.000193069 1.10731e-06 0.000188574)
(0.000194493 2.01596e-07 -5.48051e-05 0.000190504 1.08794e-06 0.000186183)
(0.000191575 2.32993e-07 -5.38404e-05 0.000187714 1.06382e-06 0.000183582)
(0.000188542 2.69645e-07 -5.28348e-05 0.000184809 1.03611e-06 0.000180882)
(0.000185497 3.17665e-07 -5.18219e-05 0.000181891 1.006e-06 0.000178178)
(0.000182443 3.84554e-07 -5.07932e-05 0.000178965 9.73814e-07 0.000175482)
(0.000179355 4.78273e-07 -4.97336e-05 0.000176011 9.39774e-07 0.000172776)
(0.000176159 6.06365e-07 -4.86138e-05 0.000172961 9.03656e-07 0.000169998)
(0.000172735 7.74722e-07 -4.739e-05 0.000169701 8.64714e-07 0.000167038)
(0.000168926 9.86336e-07 -4.60088e-05 0.000166083 8.21859e-07 0.000163749)
(0.000164561 1.24071e-06 -4.44141e-05 0.000161941 7.74396e-07 0.000159965)
(0.000159477 1.53563e-06 -4.25554e-05 0.000157111 7.23788e-07 0.000155521)
(0.000153532 1.87358e-06 -4.03931e-05 0.000151448 6.69047e-07 0.000150268)
(0.000146562 2.25344e-06 -3.78839e-05 0.000144783 6.07835e-07 0.000144026)
(0.000138394 2.66165e-06 -3.4991e-05 0.000136941 5.3864e-07 0.000136597)
(0.000128847 3.0733e-06 -3.16877e-05 0.000127726 4.58381e-07 0.000127763)
(0.000117749 3.44758e-06 -2.79678e-05 0.000116955 3.63835e-07 0.000117308)
(0.000104999 3.7242e-06 -2.38671e-05 0.000104509 2.54956e-07 0.00010508)
(9.06625e-05 3.8289e-06 -1.94921e-05 9.04366e-05 1.38874e-07 9.10975e-05)
(7.5079e-05 3.69374e-06 -1.50403e-05 7.50592e-05 3.19781e-08 7.56754e-05)
(5.89293e-05 3.2897e-06 -1.07931e-05 5.90447e-05 -4.38079e-08 5.95083e-05)
(4.32107e-05 2.6572e-06 -7.06529e-06 4.33817e-05 -7.07332e-08 4.36526e-05)
(2.90819e-05 1.9108e-06 -4.1174e-06 2.92363e-05 -5.78597e-08 2.93563e-05)
(1.7535e-05 1.18965e-06 -2.05413e-06 1.76347e-05 -3.27471e-08 1.76738e-05)
(9.11982e-06 6.01806e-07 -8.1044e-07 9.16518e-06 -1.3262e-08 9.17288e-06)
(3.82201e-06 2.11749e-07 -2.11748e-07 3.834e-06 -3.07561e-09 3.834e-06)
(1.13e-06 3.79111e-08 -2.58004e-08 1.13112e-06 -2.13886e-10 1.13098e-06)
(2.40863e-07 2.94448e-09 -1.14087e-09 2.40887e-07 -2.34893e-12 2.40887e-07)
(5.66547e-07 1.21723e-09 -1.4907e-10 5.66547e-07 -7.32964e-13 5.66549e-07)
(0.000431129 -6.67205e-07 -0.000148404 0.000389595 -5.12024e-08 0.000344039)
(0.000439709 -1.7354e-06 -0.000151745 0.000396225 -6.73491e-08 0.000349039)
(0.000452929 -2.23964e-06 -0.000156879 0.000406446 1.02424e-07 0.00035673)
(0.000466852 -2.27309e-06 -0.000162263 0.000417234 4.29357e-07 0.000364803)
(0.0004793 -2.08289e-06 -0.000167049 0.000426921 8.21547e-07 0.000372033)
(0.000489659 -1.8524e-06 -0.000171005 0.000435035 1.20336e-06 0.000378098)
(0.000498023 -1.64908e-06 -0.00017418 0.000441629 1.54273e-06 0.000383054)
(0.000504627 -1.47378e-06 -0.000176672 0.00044687 1.8363e-06 0.000387027)
(0.000509667 -1.31112e-06 -0.000178564 0.000450897 2.08976e-06 0.000390115)
(0.000513298 -1.15208e-06 -0.000179918 0.000453823 2.30787e-06 0.000392396)
(0.000515669 -9.96508e-07 -0.000180793 0.000455762 2.49264e-06 0.000393948)
(0.000516939 -8.47766e-07 -0.000181251 0.000456836 2.64484e-06 0.000394859)
(0.000517266 -7.0768e-07 -0.000181353 0.000457162 2.7656e-06 0.000395211)
(0.000516771 -5.74627e-07 -0.000181147 0.000456831 2.85685e-06 0.000395068)
(0.000515521 -4.44357e-07 -0.000180661 0.000455883 2.92116e-06 0.000394456)
(0.000513517 -3.1162e-07 -0.000179898 0.000454307 2.96135e-06 0.000393356)
(0.000510703 -1.71499e-07 -0.000178842 0.000452045 2.98005e-06 0.000391714)
(0.000506995 -2.2152e-08 -0.000177463 0.000449017 2.97927e-06 0.000389461)
(0.000502337 1.34669e-07 -0.000175743 0.00044517 2.96065e-06 0.000386548)
(0.000496747 2.96279e-07 -0.000173688 0.000440517 2.92638e-06 0.00038299)
(0.00049034 4.628e-07 -0.000171339 0.000435159 2.88028e-06 0.000378873)
(0.000483317 6.41327e-07 -0.000168764 0.000429274 2.82856e-06 0.000374358)
(0.000475932 8.4846e-07 -0.000166053 0.000423085 2.77992e-06 0.000369643)
(0.000468415 1.10945e-06 -0.000163289 0.000416784 2.74465e-06 0.000364884)
(0.000460797 1.45642e-06 -0.00016047 0.000410427 2.73223e-06 0.000360165)
(0.000453032 1.92437e-06 -0.000157571 0.000403995 2.75177e-06 0.000355495)
(0.000444968 2.54711e-06 -0.000154527 0.000397375 2.80967e-06 0.000350799)
(0.00043634 3.353e-06 -0.000151229 0.000390357 2.90798e-06 0.000345913)
(0.000426796 4.36094e-06 -0.000147539 0.000382652 3.04312e-06 0.000340603)
(0.000415931 5.57896e-06 -0.000143294 0.000373922 3.20653e-06 0.000334574)
(0.000403328 7.00883e-06 -0.000138328 0.000363797 3.39105e-06 0.000327501)
(0.000388579 8.65679e-06 -0.000132478 0.000351903 3.59177e-06 0.000319094)
(0.00037136 1.0514e-05 -0.000125611 0.000337906 3.7989e-06 0.000308947)
(0.000351297 1.25355e-05 -0.000117583 0.000321402 3.97739e-06 0.000296601)
(0.000327957 1.46283e-05 -0.000108245 0.000301906 4.07403e-06 0.000281496)
(0.000300886 1.6626e-05 -9.74665e-05 0.000278893 4.02019e-06 0.000262974)
(0.000269728 1.82633e-05 -8.51962e-05 0.000251914 3.74485e-06 0.000240383)
(0.000234432 1.91792e-05 -7.15578e-05 0.000220795 3.20381e-06 0.000213274)
(0.000195536 1.89802e-05 -5.69614e-05 0.000185912 2.42061e-06 0.000181701)
(0.00015443 1.73759e-05 -4.21771e-05 0.000148455 1.51918e-06 0.000146563)
(0.00011349 1.43567e-05 -2.8301e-05 0.000110501 7.3235e-07 0.000109879)
(7.59288e-05 1.03651e-05 -1.6575e-05 7.49461e-05 2.18148e-07 7.4844e-05)
(4.49695e-05 6.21424e-06 -7.96697e-06 4.49483e-05 -1.69544e-08 4.49695e-05)
(2.26776e-05 2.80935e-06 -2.80935e-06 2.28368e-05 -4.92246e-08 2.28368e-05)
(9.11982e-06 8.1044e-07 -6.01806e-07 9.17288e-06 -1.3262e-08 9.16518e-06)
(2.56661e-06 1.1845e-07 -5.99212e-08 2.57087e-06 -7.49136e-10 2.56993e-06)
(4.84909e-07 7.68105e-09 -2.21929e-09 4.84987e-07 -9.75066e-12 4.84984e-07)
(9.2404e-07 2.54244e-09 -2.33603e-10 9.24042e-07 -3.66862e-12 9.24047e-07)
(0.000802482 -1.67059e-06 -0.000290251 0.000660225 -6.88789e-07 0.000511392)
(0.000814373 -4.33164e-06 -0.000294728 0.000668317 -1.67385e-06 0.000516529)
(0.000832843 -5.56571e-06 -0.00030169 0.000680925 -1.83343e-06 0.00052447)
(0.000852555 -5.62498e-06 -0.000309118 0.000694451 -1.30397e-06 0.000532916)
(0.000870484 -5.13381e-06 -0.000315858 0.000706846 -4.51615e-07 0.000540634)
(0.000885648 -4.54465e-06 -0.000321541 0.000717434 4.34184e-07 0.000547266)
(0.000898039 -4.02218e-06 -0.000326169 0.000726173 1.2301e-06 0.000552817)
(0.000907901 -3.5683e-06 -0.000329845 0.000733193 1.91747e-06 0.000557357)
(0.000915483 -3.14557e-06 -0.000332668 0.000738636 2.51113e-06 0.000560953)
(0.000921008 -2.73131e-06 -0.000334723 0.000742636 3.02356e-06 0.000563664)
(0.000924699 -2.32371e-06 -0.000336096 0.000745337 3.4582e-06 0.000565564)
(0.000926792 -1.92909e-06 -0.000336876 0.000746894 3.81458e-06 0.000566738)
(0.000927508 -1.55019e-06 -0.000337145 0.000747452 4.09412e-06 0.000567268)
(0.000927014 -1.18187e-06 -0.000336969 0.000747113 4.30222e-06 0.000567208)
(0.000925388 -8.13199e-07 -0.000336378 0.000745912 4.44767e-06 0.000566565)
(0.000922606 -4.31427e-07 -0.000335367 0.000743804 4.54145e-06 0.000565292)
(0.000918552 -2.50755e-08 -0.000333895 0.000740679 4.5948e-06 0.000563296)
(0.000913059 4.10131e-07 -0.000331902 0.000736395 4.6169e-06 0.000560468)
(0.000905997 8.70724e-07 -0.00032934 0.000730851 4.61478e-06 0.000556742)
(0.000897346 1.35236e-06 -0.000326203 0.000724046 4.59576e-06 0.000552134)
(0.000887244 1.85897e-06 -0.000322537 0.000716106 4.57123e-06 0.000546772)
(0.000875976 2.4125e-06 -0.000318448 0.000707282 4.56036e-06 0.000540882)
(0.000863936 3.05702e-06 -0.000314077 0.000697887 4.59112e-06 0.000534716)
(0.00085147 3.85619e-06 -0.000309549 0.000688198 4.69845e-06 0.000528506)
(0.000838693 4.89055e-06 -0.000304901 0.000678357 4.92027e-06 0.00052243)
(0.000825601 6.24915e-06 -0.000300121 0.000668388 5.29466e-06 0.000516557)
(0.000812023 8.01881e-06 -0.000295135 0.00065818 5.85336e-06 0.000510847)
(0.00079761 1.02754e-05 -0.000289799 0.000647478 6.61699e-06 0.000505151)
(0.000781868 1.30772e-05 -0.000283908 0.000635903 7.59095e-06 0.000499225)
(0.000764188 1.64658e-05 -0.000277207 0.000622978 8.76776e-06 0.000492736)
(0.000743888 2.04905e-05 -0.000269401 0.000608157 1.01669e-05 0.000485245)
(0.000720182 2.51343e-05 -0.000260142 0.000590796 1.17616e-05 0.000476191)
(0.000692599 3.03447e-05 -0.000249206 0.000570414 1.34841e-05 0.000465204)
(0.000660516 3.60432e-05 -0.0002363 0.000546312 1.52657e-05 0.000451667)
(0.000623098 4.20244e-05 -0.000221055 0.000517609 1.69556e-05 0.000434701)
(0.000579308 4.78939e-05 -0.000203061 0.00048326 1.83239e-05 0.000413188)
(0.000527993 5.29963e-05 -0.000181929 0.000442194 1.9058e-05 0.000385839)
(0.000468111 5.63834e-05 -0.00015744 0.000393614 1.87793e-05 0.000351402)
(0.000399223 5.68957e-05 -0.000129775 0.000337466 1.71083e-05 0.000309024)
(0.000322233 5.34243e-05 -9.97971e-05 0.000275103 1.38237e-05 0.00025877)
(0.000240321 4.52736e-05 -6.9264e-05 0.000209455 9.31922e-06 0.00020224)
(0.000160284 3.29989e-05 -4.11113e-05 0.00014523 4.53837e-06 0.000143459)
(9.24758e-05 1.91913e-05 -1.91913e-05 8.85423e-05 1.11979e-06 8.85423e-05)
(4.49695e-05 7.96697e-06 -6.21423e-06 4.49695e-05 -1.69546e-08 4.49483e-05)
(1.7535e-05 2.05413e-06 -1.18965e-06 1.76738e-05 -3.27471e-08 1.76347e-05)
(4.80204e-06 2.76759e-07 -1.09338e-07 4.8139e-06 -1.94534e-09 4.81002e-06)
(8.47793e-07 1.64995e-08 -3.7346e-09 8.48009e-07 -3.16578e-11 8.47967e-07)
(1.37478e-06 4.61815e-09 -3.33996e-10 1.37479e-06 -1.11193e-11 1.37479e-06)
(0.00115723 -3.01777e-06 -0.000420865 0.000909897 -1.7294e-06 0.000653247)
(0.00116697 -7.77376e-06 -0.000424566 0.000917363 -4.32141e-06 0.000659641)
(0.00118237 -9.86623e-06 -0.000430462 0.000929277 -5.12556e-06 0.000669663)
(0.00119925 -9.78601e-06 -0.000436968 0.000942474 -4.47898e-06 0.000680592)
(0.00121515 -8.69403e-06 -0.000443102 0.000954998 -3.15702e-06 0.00069083)
(0.0012291 -7.425e-06 -0.000448472 0.000966035 -1.73663e-06 0.000699766)
(0.0012409 -6.28838e-06 -0.000452993 0.000975359 -4.58188e-07 0.000707273)
(0.00125054 -5.29545e-06 -0.000456683 0.000982969 6.38532e-07 0.000713391)
(0.00125815 -4.38162e-06 -0.000459588 0.000988937 1.57769e-06 0.000718209)
(0.00126384 -3.50421e-06 -0.000461767 0.000993375 2.38083e-06 0.000721829)
(0.00126779 -2.65529e-06 -0.000463285 0.000996422 3.05439e-06 0.000724369)
(0.00127018 -1.84087e-06 -0.000464218 0.000998231 3.59827e-06 0.00072596)
(0.00127118 -1.06153e-06 -0.000464635 0.000998939 4.01583e-06 0.000726723)
(0.00127091 -3.05263e-07 -0.000464583 0.00099863 4.31767e-06 0.000726744)
(0.00126937 4.48753e-07 -0.000464067 0.000997309 4.52105e-06 0.000726048)
(0.00126644 1.22359e-06 -0.000463053 0.000994889 4.64778e-06 0.000724589)
(0.00126192 2.03999e-06 -0.000461464 0.000991201 4.72064e-06 0.00072226)
(0.00125555 2.90796e-06 -0.000459209 0.000986044 4.75944e-06 0.000718913)
(0.00124715 3.82756e-06 -0.000456218 0.000979267 4.78057e-06 0.000714432)
(0.00123671 4.8015e-06 -0.00045248 0.00097084 4.80079e-06 0.000708784)
(0.00122443 5.85009e-06 -0.000448063 0.0009609 4.84385e-06 0.00070206)
(0.00121071 7.0252e-06 -0.000443109 0.000949736 4.94635e-06 0.000694476)
(0.00119606 8.4173e-06 -0.000437802 0.000937727 5.16133e-06 0.000686329)
(0.00118095 1.01486e-05 -0.000432312 0.000925222 5.55729e-06 0.000677897)
(0.00116572 1.23687e-05 -0.000426751 0.000912452 6.21209e-06 0.00066937)
(0.0011505 1.52433e-05 -0.000421159 0.000899508 7.20902e-06 0.000660849)
(0.00113524 1.89363e-05 -0.000415494 0.00088632 8.62927e-06 0.000652323)
(0.00111966 2.35966e-05 -0.000409624 0.000872639 1.05484e-05 0.000643664)
(0.0011033 2.9347e-05 -0.000403329 0.000858052 1.30334e-05 0.000634648)
(0.00108549 3.62732e-05 -0.000396309 0.000841992 1.61422e-05 0.000624958)
(0.00106542 4.444e-05 -0.000388156 0.000823847 1.99352e-05 0.000614153)
(0.00103764 5.36396e-05 -0.000376904 0.000802848 2.39577e-05 0.000605419)
(0.0010053 6.3962e-05 -0.000363443 0.000778315 2.84076e-05 0.000595193)
(0.00096826 7.52234e-05 -0.000347556 0.000749226 3.32416e-05 0.000582172)
(0.000925381 8.70131e-05 -0.000328673 0.00071432 3.82705e-05 0.000565216)
(0.000874952 9.85969e-05 -0.000306073 0.000672042 4.31341e-05 0.000542911)
(0.000814555 0.000108782 -0.000278928 0.000620693 4.7183e-05 0.000513705)
(0.000741075 0.000115832 -0.000246442 0.000558798 4.93596e-05 0.000476105)
(0.000651187 0.000117519 -0.000208178 0.000485742 4.8179e-05 0.000428911)
(0.000542742 0.000111598 -0.000164599 0.000403135 4.20728e-05 0.000371294)
(0.000416966 9.61832e-05 -0.000117505 0.000314468 3.10284e-05 0.000302871)
(0.00028182 7.10359e-05 -7.10358e-05 0.000225599 1.65608e-05 0.000225599)
(0.000160284 4.11113e-05 -3.29989e-05 0.000143459 4.53836e-06 0.00014523)
(7.59288e-05 1.6575e-05 -1.03651e-05 7.4844e-05 2.18147e-07 7.49461e-05)
(2.90819e-05 4.1174e-06 -1.9108e-06 2.93563e-05 -5.78597e-08 2.92363e-05)
(7.85827e-06 5.40279e-07 -1.71258e-07 7.88596e-06 -3.93279e-09 7.87339e-06)
(1.33337e-06 3.08029e-08 -5.61031e-09 1.33391e-06 -6.94989e-11 1.33368e-06)
(1.91893e-06 7.61744e-09 -4.45013e-10 1.91895e-06 -2.29374e-11 1.91895e-06)
(0.00140832 -4.48064e-06 -0.000513086 0.00111381 -2.65742e-06 0.000800346)
(0.00141632 -1.15241e-05 -0.000516062 0.00111964 -6.76902e-06 0.000805625)
(0.00142932 -1.45668e-05 -0.000521022 0.00112937 -8.36685e-06 0.000814192)
(0.00144409 -1.43142e-05 -0.000526785 0.00114071 -7.87157e-06 0.000823972)
(0.00145856 -1.24837e-05 -0.000532487 0.00115204 -6.33901e-06 0.000833607)
(0.00147172 -1.03393e-05 -0.000537678 0.00116243 -4.58101e-06 0.000842399)
(0.00148313 -8.37817e-06 -0.000542173 0.00117147 -2.95943e-06 0.000850038)
(0.00149263 -6.64509e-06 -0.000545914 0.00117897 -1.55579e-06 0.000856419)
(0.00150021 -5.05688e-06 -0.000548905 0.00118491 -3.53634e-07 0.000861552)
(0.00150594 -3.55123e-06 -0.000551185 0.00118937 6.68288e-07 0.00086551)
(0.00150995 -2.11162e-06 -0.00055281 0.00119246 1.51594e-06 0.0008684)
(0.00151241 -7.40973e-07 -0.000553849 0.00119431 2.18902e-06 0.000870344)
(0.00151345 5.6446e-07 -0.00055436 0.00119502 2.69324e-06 0.000871455)
(0.00151313 1.82499e-06 -0.000554378 0.00119467 3.04481e-06 0.00087181)
(0.00151141 3.07234e-06 -0.000553895 0.00119321 3.26964e-06 0.000871416)
(0.00150811 4.34107e-06 -0.000552855 0.00119051 3.4006e-06 0.0008702)
(0.00150298 5.66398e-06 -0.000551159 0.00118635 3.47163e-06 0.000868015)
(0.00149569 7.06306e-06 -0.00054869 0.00118049 3.51321e-06 0.000864664)
(0.00148603 8.55285e-06 -0.000545356 0.00117271 3.55214e-06 0.000859972)
(0.00147399 1.01581e-05 -0.000541132 0.00116296 3.61596e-06 0.000853863)
(0.00145979 1.19311e-05 -0.00053609 0.00115135 3.74141e-06 0.00084641)
(0.00144389 1.39686e-05 -0.000530385 0.00113821 3.98283e-06 0.000837851)
(0.00142688 1.64193e-05 -0.000524227 0.00112396 4.4159e-06 0.00082853)
(0.0014093 1.94714e-05 -0.000517813 0.00110899 5.1369e-06 0.000818801)
(0.00139161 2.33453e-05 -0.000511293 0.00109362 6.25373e-06 0.000808969)
(0.00137403 2.82749e-05 -0.000504734 0.00107802 7.88239e-06 0.000799243)
(0.00135657 3.44866e-05 -0.000498105 0.00106216 1.01373e-05 0.00078973)
(0.00133903 4.21786e-05 -0.000491268 0.00104583 1.31289e-05 0.000780403)
(0.00132096 5.1503e-05 -0.000483973 0.00102865 1.69586e-05 0.000771132)
(0.00130173 6.25401e-05 -0.000475858 0.00101003 2.17152e-05 0.000761668)
(0.00128051 7.52645e-05 -0.000466461 0.000989367 2.74044e-05 0.00075166)
(0.0012563 8.97236e-05 -0.000455185 0.00096587 3.40624e-05 0.000740689)
(0.00122802 0.000105809 -0.00044141 0.000938591 4.16289e-05 0.000728515)
(0.00119425 0.000123007 -0.000424397 0.000906366 4.97896e-05 0.000714587)
(0.00115306 0.000140514 -0.00040326 0.000867787 5.8028e-05 0.0006979)
(0.00110201 0.000157148 -0.000377052 0.000821153 6.55288e-05 0.000676838)
(0.00103818 0.000171264 -0.000344905 0.000764505 7.11976e-05 0.000649021)
(0.000958412 0.000180732 -0.000306247 0.000695746 7.38473e-05 0.000611308)
(0.000859888 0.000182983 -0.000261129 0.000612812 7.24661e-05 0.000560096)
(0.000740933 0.000175588 -0.000210675 0.00051585 6.63383e-05 0.000492136)
(0.000601598 0.000156643 -0.000156643 0.0004062 5.64218e-05 0.0004062)
(0.000416966 0.000117505 -9.61832e-05 0.000302871 3.10284e-05 0.000314468)
(0.000240321 6.9264e-05 -4.52735e-05 0.00020224 9.31921e-06 0.000209455)
(0.00011349 2.8301e-05 -1.43567e-05 0.000109879 7.32348e-07 0.000110501)
(4.32107e-05 7.06529e-06 -2.6572e-06 4.36526e-05 -7.07332e-08 4.33817e-05)
(1.16191e-05 9.24854e-07 -2.37839e-07 1.16749e-05 -5.73991e-09 1.16429e-05)
(1.9262e-06 5.14622e-08 -7.62429e-09 1.92736e-06 -8.59682e-11 1.92665e-06)
(2.54968e-06 1.16675e-08 -5.56238e-10 2.54972e-06 -3.09447e-11 2.54969e-06)
(0.00160796 -6.0377e-06 -0.000586005 0.00127569 -3.64041e-06 0.000915502)
(0.00161363 -1.55577e-05 -0.000588033 0.00127934 -9.39072e-06 0.000919348)
(0.00162326 -1.97112e-05 -0.000591717 0.00128597 -1.19211e-05 0.000925969)
(0.00163482 -1.93625e-05 -0.000596365 0.00129446 -1.17159e-05 0.000934039)
(0.00164676 -1.67617e-05 -0.000601283 0.00130362 -1.00809e-05 0.000942536)
(0.00165811 -1.36255e-05 -0.000605984 0.00131251 -8.05697e-06 0.000950726)