/*--------------------------------*- C++ -*----------------------------------*\
| =========                 |                                                 |
| \\      /  F ield         | OpenFOAM: The Open Source CFD Toolbox           |
|  \\    /   O peration     | Version:  2506                                  |
|   \\  /    A nd           | Website:  www.openfoam.com                      |
|    \\/     M anipulation  |                                                 |
\*---------------------------------------------------------------------------*/
FoamFile
{
    version     2.0;
    format      ascii;
    arch        "LSB;label=32;scalar=64";
    class       volScalarField;
    location    "2137";
    object      separationFactor;
}
// * * * * * * * * * * * * * * * * * * * * * * * * * * * * * * * * * * * * * //

dimensions      [0 0 0 0 0 0 0];

internalField   nonuniform List<scalar> 
2304
(
-0
-0
-0
-0
-0
-0
-0
-0
-0
-0
-0
-0
-0
-9.93985e-68
-0
-0
-0
-0
-0
-0
-0
-0
-0
-0
-0
-4.34077e-69
-0
-0
-0
-4.34088e-69
-4.34092e-69
-0
-0
-0
-0
-0
-0
-0
-0
-0
-0
-0
-0
-0
-0
-0
-0
-0
-0
-0
-0
-4.29469e-69
-0
-0
-0
-4.29087e-69
-0
-0
-0
-0
-4.29009e-69
-4.29022e-69
-0
-0
-0
-0
-0
-0
-0
-0
-0
-0
-0
-0
-0
-0
-4.29751e-69
-0
-0
-0
-0
-9.86152e-68
-9.8677e-68
-0
-9.88218e-68
-0
-0
-0
-0
-0
-0
-0
-0
-0
-4.34164e-69
-0
-0
-0
-0
-0
-0
-0
-0
-0
-0
-0
-0
-0
-3.91243e-69
-0
-3.91472e-69
-0
-0
-0
-0
-0
-0
-0
-0
-9.0233e-68
-0
-0
-0
-0
-9.08976e-68
-9.11182e-68
-0
-0
-0
-0
-0
-4.08313e-69
-4.10935e-69
-9.4751e-68
-0
-0
-9.67806e-68
-0
-0
-0
-0
-0
-0
-0
-0
-0
-6.85378e-68
-0
-0
-0
-0
-0
-0
-0
-0
-0
-6.57618e-68
-0
-0
-0
-6.61076e-68
-0
-0
-0
-0
-0
-0
-0
-0
-0
-0
-6.87211e-68
-0
-3.04947e-69
-3.08147e-69
-0
-0
-3.21747e-69
-0
-0
-0
-0
-3.61267e-69
-0
-0
-0
-0
-0
-4.23685e-69
-0
-0
-0
-0
-0
-0
-0
-0
-0
-0
-0
-0
-0
-0
-0
-0
-1.62357e-69
-0
-0
-0
-0
-0
-0
-0
-0
-0
-0
-0
-0
-0
-0
-0
-4.17874e-68
-0
-0
-0
-0
-0
-2.21389e-69
-0
-0
-0
-2.74749e-69
-0
-0
-0
-0
-0
-0
-0
-4.34202e-69
-0
-0
-0
-0
-0
-0
-0
-0
-0
-0
-0
-0
-0
-0
-0
-0
-0
-1.9402e-68
-0
-0
-0
-0
-0
-2.0055e-68
-0
-0
-0
-0
-0
-0
-1.01038e-69
-0
-0
-0
-0
-1.2686e-69
-0
-3.25046e-68
-0
-0
-1.85766e-69
-0
-0
-0
-0
-0
-0
-0
-2.79073e-07
-1.78482e-06
-1.2749e-05
-5.62333e-05
-0.000157483
-0.00031563
-0.000503511
-0.000689552
-0.000852594
-0.000983194
-0.00108034
-0.00114835
-0.00119506
-0.00123048
-0.00126525
-0.00130904
-0.00136818
-0.00144166
-0.00151831
-0.00157561
-0.00158377
-0.00151863
-0.00137822
-0.001165
-0.000893445
-0.000601653
-0.00033746
-0.000142509
-3.62109e-05
-2.80022e-06
-1.36748e-10
-0
-0
-0
-0
-0
-0
-0
-0
-0
-0
-0
-0
-0
-0
-4.25287e-69
-9.92159e-68
-0
-0.00521662
-0.00559966
-0.00655606
-0.00818926
-0.0103876
-0.0128396
-0.0152228
-0.0173383
-0.0191305
-0.0206301
-0.0219053
-0.0230385
-0.0241258
-0.0252788
-0.0266164
-0.0282455
-0.0302191
-0.0324713
-0.0347753
-0.0367481
-0.0379408
-0.0380181
-0.0368144
-0.0343277
-0.0307053
-0.0262649
-0.0214135
-0.016559
-0.0120726
-0.0082362
-0.00522541
-0.00317713
-0.00204141
-0.00162264
-0.00187418
-0.00318162
-0.00645351
-0.0115736
-0.0132524
-0.00473986
-0
-0
-0
-0
-0
-0
-4.32959e-69
-0
-0.0169484
-0.0164179
-0.0165406
-0.0180266
-0.0208178
-0.0243859
-0.0281486
-0.0317258
-0.0349933
-0.0379917
-0.0408354
-0.0436699
-0.0466731
-0.0500592
-0.0540574
-0.0588548
-0.0644794
-0.0706417
-0.0766637
-0.081567
-0.0843699
-0.084392
-0.0814072
-0.0756632
-0.0677639
-0.0585541
-0.0489521
-0.0397726
-0.031667
-0.0250316
-0.0200526
-0.0167729
-0.0159401
-0.0185034
-0.0265703
-0.0437223
-0.0716932
-0.101772
-0.109575
-0.0671656
-0.00473984
-0
-0
-0
-3.71531e-69
-0
-0
-9.94228e-68
-0.0182365
-0.0165696
-0.0152819
-0.0155571
-0.017466
-0.0205412
-0.0242075
-0.0280356
-0.0318408
-0.0356266
-0.0394985
-0.0436176
-0.0482
-0.0535174
-0.0598555
-0.0674117
-0.0760973
-0.0853024
-0.0938466
-0.100226
-0.103104
-0.101675
-0.0959631
-0.086695
-0.0751035
-0.0626431
-0.0506707
-0.0402292
-0.0320267
-0.0263514
-0.0232944
-0.0230368
-0.0265944
-0.0363267
-0.0562668
-0.0898416
-0.132744
-0.167828
-0.166533
-0.109575
-0.0132523
-0
-0
-0
-0
-4.16736e-69
-0
-0
-0.0138012
-0.0116932
-0.00977312
-0.00922678
-0.0101215
-0.0121524
-0.0149464
-0.0181876
-0.0217102
-0.0254963
-0.0296302
-0.0342679
-0.0396361
-0.046028
-0.0537385
-0.0629166
-0.0732972
-0.0839221
-0.0931695
-0.0991757
-0.100424
-0.0963298
-0.0873898
-0.0749728
-0.0609774
-0.0472832
-0.0354292
-0.0262297
-0.019988
-0.0166137
-0.0159723
-0.0183797
-0.0252138
-0.0395831
-0.0657779
-0.104739
-0.1461
-0.166386
-0.167828
-0.101772
-0.0115735
-0
-0
-0
-0
-0
-0
-0
-0.00889425
-0.00695992
-0.00515436
-0.00439394
-0.00465138
-0.00574688
-0.00752987
-0.00986752
-0.0126814
-0.0159746
-0.0198282
-0.0243946
-0.0299002
-0.0366322
-0.0448495
-0.0545914
-0.0653624
-0.0758637
-0.0841498
-0.0881766
-0.0866011
-0.0793384
-0.0675859
-0.053412
-0.0392208
-0.0268966
-0.0175695
-0.0113449
-0.0077282
-0.00625537
-0.00667085
-0.00947522
-0.016356
-0.0306447
-0.0561484
-0.0921361
-0.126823
-0.1461
-0.132744
-0.0716931
-0.00645347
-0
-0
-0
-0
-0
-4.31544e-69
-0
-0.00535215
-0.00383934
-0.00245827
-0.00182231
-0.00181582
-0.00231682
-0.00331136
-0.00481738
-0.00686375
-0.00950888
-0.0128569
-0.0170682
-0.0223637
-0.0289976
-0.0371378
-0.0466415
-0.056735
-0.0658247
-0.0717964
-0.0727554
-0.0678866
-0.0578828
-0.044768
-0.0311237
-0.0193459
-0.0107118
-0.00533042
-0.00256858
-0.0013011
-0.000897459
-0.0011035
-0.00240241
-0.00651992
-0.0167348
-0.0363671
-0.0642225
-0.0921361
-0.104739
-0.0898415
-0.0437223
-0.0031816
-0
-0
-0
-0
-0
-0
-0
-0.00321126
-0.00211047
-0.00114938
-0.000712394
-0.000645083
-0.000848294
-0.00135646
-0.00226593
-0.00369061
-0.00575564
-0.00860674
-0.0124203
-0.0174011
-0.0237331
-0.0314237
-0.0400734
-0.0486226
-0.0552777
-0.0580332
-0.0555331
-0.0478102
-0.0364991
-0.0242698
-0.0137042
-0.00629588
-0.0022967
-0.000599417
-0.000123939
-2.50749e-05
-8.02988e-06
-1.24222e-05
-9.99364e-05
-0.000997034
-0.00550305
-0.0172417
-0.0363671
-0.0561484
-0.0657779
-0.0562668
-0.0265702
-0.00187417
-1.65836e-68
-0
-0
-0
-0
-0
-0
-0.00201345
-0.00122703
-0.00057217
-0.000290331
-0.000230583
-0.000309413
-0.000563853
-0.00111016
-0.00210988
-0.00374556
-0.0062063
-0.00967791
-0.0143204
-0.0201947
-0.0270763
-0.0342682
-0.0405017
-0.0439991
-0.0432432
-0.0377846
-0.0286734
-0.0183317
-0.00936819
-0.00359922
-0.000851683
-0.000103453
-2.96483e-06
-5.59443e-17
-0
-0
-0
-0
-9.43172e-06
-0.000692849
-0.00550305
-0.0167348
-0.0306447
-0.0395831
-0.0363267
-0.0185033
-0.00162263
-1.60223e-68
-1.14618e-69
-0
-0
-0
-0
-4.34111e-69
-0.00136078
-0.000789287
-0.000327642
-0.000139026
-9.5441e-05
-0.000128156
-0.000264733
-0.000613388
-0.00135147
-0.00269547
-0.00485786
-0.0080027
-0.0121937
-0.0173137
-0.0228803
-0.0279514
-0.0312518
-0.0314128
-0.0277405
-0.0209203
-0.0128081
-0.00590787
-0.00174079
-0.000251332
-7.19309e-06
-0
-0
-0
-0
-0
-0
-1.52754e-68
-0
-9.43174e-06
-0.000997036
-0.00651993
-0.016356
-0.0252138
-0.0265944
-0.0159401
-0.0020414
-0
-0
-0
-0
-0
-0
-0
-0.00103705
-0.000593652
-0.000234945
-8.98778e-05
-5.48246e-05
-7.13457e-05
-0.000158277
-0.000408864
-0.000993576
-0.00212696
-0.00399826
-0.00669566
-0.0101309
-0.0139952
-0.0176466
-0.0201009
-0.0203901
-0.0180118
-0.0132151
-0.00756993
-0.00301279
-0.000639275
-3.9653e-05
-1.69492e-09
-0
-0
-0
-0
-1.68976e-68
-0
-0
-0
-0
-0
-9.99367e-05
-0.00240241
-0.00947524
-0.0183798
-0.0230368
-0.0167729
-0.00317713
-0
-1.04899e-69
-0
-0
-0
-0
-0
-0.000917394
-0.000539382
-0.000220966
-8.51424e-05
-4.94854e-05
-6.02014e-05
-0.000129392
-0.000334374
-0.000817272
-0.00174163
-0.00320937
-0.00518859
-0.00744288
-0.00954934
-0.0109688
-0.0110555
-0.00934223
-0.00644599
-0.00325205
-0.000969548
-0.000118636
-7.23871e-07
-0
-0
-0
-0
-0
-0
-1.79512e-68
-0
-0
-0
-0
-0
-1.24223e-05
-0.0011035
-0.00667085
-0.0159723
-0.0232944
-0.0200526
-0.00522541
-1.36727e-10
-0
-0
-3.08147e-69
-0
-0
-0
-0.000942294
-0.000587866
-0.00026665
-0.000113824
-6.76744e-05
-7.49325e-05
-0.000139549
-0.000316572
-0.000692773
-0.00133274
-0.00221319
-0.00321428
-0.00408731
-0.00446692
-0.00422496
-0.00334804
-0.00190796
-0.000707813
-0.000128245
-2.87824e-06
-0
-1.53492e-68
-0
-0
-0
-0
-0
-0
-0
-1.83961e-68
-0
-0
-0
-0
-8.02987e-06
-0.000897458
-0.00625537
-0.0166137
-0.0263514
-0.0250317
-0.00823621
-2.80017e-06
-0
-0
-0
-0
-0
-0
-0.00110862
-0.000747604
-0.000388749
-0.000192204
-0.000120799
-0.000119516
-0.000176965
-0.000311302
-0.000534387
-0.000810442
-0.00105211
-0.00118778
-0.00116071
-0.000881818
-0.00050719
-0.000201116
-3.91762e-05
-7.44944e-07
-1.43759e-68
-0
-1.61038e-68
-0
-1.79215e-68
-0
-0
-0
-2.00394e-68
-0
-0
-0
-0
-0
-0
-0
-2.50747e-05
-0.0013011
-0.0077282
-0.019988
-0.0320268
-0.0316671
-0.0120727
-3.62106e-05
-0
-0
-0
-0
-0
-0
-0.0014605
-0.00106821
-0.000637904
-0.000363616
-0.000239509
-0.000207629
-0.000229809
-0.000278177
-0.000313264
-0.000287619
-0.000213054
-0.000124274
-5.63022e-05
-1.59153e-05
-1.1799e-06
-6.82426e-13
-0
-0
-0
-0
-0
-0
-1.95573e-68
-0
-2.0764e-68
-0
-0
-0
-0
-0
-1.79346e-68
-0
-0
-5.57117e-17
-0.000123938
-0.00256858
-0.0113449
-0.0262297
-0.0402292
-0.0397727
-0.016559
-0.000142508
-0
-0
-6.87211e-68
-0
-0
-0
-0.00209739
-0.0016495
-0.00110743
-0.000703353
-0.000469383
-0.000346324
-0.000269498
-0.000191324
-9.7416e-05
-2.7146e-05
-4.36687e-06
-1.62091e-07
-0
-0
-0
-0
-0
-0
-0
-0
-0
-0
-0
-0
-0
-0
-0
-2.0931e-68
-2.00394e-68
-0
-0
-0
-1.49196e-68
-2.96473e-06
-0.000599411
-0.0053304
-0.0175695
-0.0354292
-0.0506708
-0.0489522
-0.0214135
-0.000337459
-0
-3.99121e-68
-0
-0
-0
-4.34079e-69
-0.00319398
-0.00265759
-0.00194018
-0.00131037
-0.000845837
-0.000508282
-0.000252401
-7.41518e-05
-5.65101e-06
-1.65394e-08
-0
-0
-0
-0
-0
-0
-0
-0
-0
-0
-0
-0
-0
-0
-0
-0
-0
-0
-1.98638e-68
-0
-0
-0
-1.42065e-68
-0.000103451
-0.00229668
-0.0107117
-0.0268965
-0.0472832
-0.0626432
-0.0585542
-0.026265
-0.000601651
-0
-0
-0
-0
-0
-4.34077e-69
-0.00501761
-0.00432952
-0.00330841
-0.00225768
-0.00133369
-0.000609828
-0.000154954
-6.82594e-06
-1.4973e-14
-0
-0
-0
-0
-0
-1.76385e-68
-0
-0
-0
-2.13125e-68
-0
-0
-0
-0
-0
-0
-0
-0
-0
-0
-0
-0
-0
-7.19278e-06
-0.00085167
-0.00629584
-0.0193459
-0.0392208
-0.0609774
-0.0751036
-0.067764
-0.0307053
-0.000893442
-0
-0
-0
-0
-0
-0
-0.00789587
-0.00691451
-0.00531434
-0.0034687
-0.00174851
-0.000535747
-3.80173e-05
-6.12201e-10
-0
-0
-0
-0
-0
-0
-0
-2.03653e-68
-0
-0
-0
-0
-0
-0
-2.46778e-68
-0
-0
-2.28146e-68
-0
-0
-0
-0
-0
-1.69436e-09
-0.000251325
-0.00359918
-0.0137041
-0.0311236
-0.053412
-0.0749728
-0.0866951
-0.0756633
-0.0343277
-0.00116499
-2.00551e-68
-0
-0
-0
-0
-0
-0.0120175
-0.0104455
-0.007743
-0.00453445
-0.001747
-0.000254882
-6.51478e-07
-0
-0
-0
-0
-0
-0
-0
-0
-0
-0
-0
-0
-0
-0
-0
-2.53321e-68
-0
-0
-0
-0
-0
-1.79215e-68
-0
-0
-3.96512e-05
-0.00174076
-0.00936809
-0.0242697
-0.0447679
-0.0675859
-0.0873898
-0.0959632
-0.0814073
-0.0368144
-0.00137821
-1.98874e-68
-0
-0
-0
-0
-0
-0.0169046
-0.0142448
-0.009703
-0.00465896
-0.00107801
-2.40003e-05
-1.43794e-68
-0
-1.66069e-68
-0
-1.89076e-68
-0
-0
-0
-0
-0
-0
-0
-0
-0
-0
-0
-2.56846e-68
-0
-0
-0
-0
-0
-0
-0
-7.2379e-07
-0.000639256
-0.00590778
-0.0183316
-0.036499
-0.0578826
-0.0793383
-0.0963298
-0.101675
-0.0843921
-0.0380181
-0.00151862
-0
-0
-0
-0
-0
-0
-0.0206363
-0.0163869
-0.00956017
-0.00315996
-0.000232223
-1.2267e-11
-0
-0
-0
-0
-0
-0
-0
-2.46863e-68
-0
-0
-0
-0
-0
-0
-0
-0
-0
-0
-0
-0
-0
-1.77593e-68
-0
-0
-0.000118631
-0.00301272
-0.0128079
-0.0286731
-0.0478099
-0.0678864
-0.086601
-0.100424
-0.103104
-0.0843699
-0.0379408
-0.00158376
-0
-0
-0
-0
-4.29238e-69
-0
-0.0197683
-0.0141217
-0.0060826
-0.000888657
-1.95575e-06
-0
-1.6476e-68
-0
-0
-0
-0
-0
-0
-0
-0
-0
-2.92622e-68
-0
-0
-0
-0
-0
-0
-0
-0
-0
-1.85668e-68
-0
-0
-2.87799e-06
-0.000969519
-0.00756979
-0.02092
-0.0377842
-0.0555328
-0.0727552
-0.0881764
-0.0991756
-0.100226
-0.081567
-0.0367481
-0.0015756
-0
-0
-0
-0
-0
-0
-0.0120039
-0.00687037
-0.00147352
-2.07007e-05
-0
-0
-0
-0
-0
-0
-0
-2.69084e-68
-0
-0
-0
-0
-0
-0
-0
-0
-0
-0
-0
-0
-2.13125e-68
-0
-0
-0
-1.43759e-68
-0.00012824
-0.00325197
-0.0132149
-0.0277402
-0.0432428
-0.0580328
-0.0717961
-0.0841495
-0.0931693
-0.0938464
-0.0766636
-0.0347752
-0.00151829
-0
-0
-0
-0
-4.29159e-69
-0
-0.00261682
-0.000807673
-2.05276e-05
-0
-0
-0
-0
-0
-2.40758e-68
-2.6081e-68
-0
-0
-0
-0
-0
-1.41371e-69
-0
-0
-0
-0
-0
-2.61775e-68
-0
-0
-0
-0
-0
-0
-7.44896e-07
-0.000707792
-0.00644585
-0.0180115
-0.0314124
-0.0439987
-0.0552773
-0.0658243
-0.0758633
-0.0839218
-0.0853022
-0.0706415
-0.0324712
-0.00144164
-0
-0
-0
-0
-0
-0
-2.72051e-05
-1.62177e-07
-0
-0
-0
-0
-2.20867e-68
-0
-0
-0
-0
-0
-0
-0
-0
-1.47367e-69
-0
-0
-0
-0
-0
-0
-0
-0
-0
-0
-0
-0
-3.91754e-05
-0.00190792
-0.00934205
-0.0203897
-0.0312513
-0.0405012
-0.0486222
-0.0567346
-0.065362
-0.0732969
-0.0760971
-0.0644793
-0.030219
-0.00136816
-0
-0
-6.61076e-68
-0
-4.29092e-69
-9.9399e-68
-1.50659e-68
-0
-0
-0
-0
-9.68696e-70
-0
-0
-0
-1.37887e-69
-0
-0
-0
-0
-0
-0
-1.47367e-69
-0
-3.07022e-68
-2.87962e-68
-0
-0
-0
-0
-0
-0
-0
-6.83453e-13
-0.000201115
-0.00334798
-0.0110553
-0.0201006
-0.027951
-0.0342678
-0.0400729
-0.0466411
-0.0545911
-0.0629163
-0.0674114
-0.0588546
-0.0282454
-0.00130902
-1.92925e-68
-1.63145e-69
-0
-3.91646e-69
-0
-9.93988e-68
-0
-0
-8.06714e-70
-0
-0
-1.08929e-69
-0
-0
-0
-1.50198e-69
-0
-0
-0
-1.61774e-69
-0
-0
-0
-0
-0
-2.80442e-68
-0
-0
-0
-0
-0
-0
-0
-1.18004e-06
-0.000507193
-0.0042249
-0.0109686
-0.0176463
-0.02288
-0.0270759
-0.0314233
-0.0371374
-0.0448491
-0.0537382
-0.0598552
-0.0540572
-0.0266162
-0.00126522
-0
-0
-0
-0
-0
-0
-8.25488e-70
-0
-0
-0
-0
-1.22717e-69
-0
-0
-0
-0
-1.66958e-69
-0
-0
-1.66437e-69
-0
-0
-0
-0
-0
-0
-0
-0
-0
-0
-0
-0
-0
-1.5917e-05
-0.000881836
-0.0044669
-0.00954921
-0.013995
-0.0173134
-0.0201944
-0.0237327
-0.0289972
-0.0366318
-0.0460276
-0.0535171
-0.050059
-0.0252786
-0.00123046
-0
-0
-6.58141e-68
-0
-0
-0
-0
-0
-1.05691e-69
-1.15141e-69
-0
-0
-0
-1.59643e-69
-0
-1.73224e-69
-0
-0
-0
-0
-0
-0
-0
-1.34224e-69
-0
-0
-0
-0
-0
-0
-0
-1.51813e-68
-0
-5.63086e-05
-0.00116075
-0.00408732
-0.00744281
-0.0101307
-0.0121935
-0.0143202
-0.0174009
-0.0223634
-0.0298999
-0.0396358
-0.0481996
-0.0466728
-0.0241256
-0.00119502
-0
-0
-0
-3.91243e-69
-0
-0
-0
-0
-0
-0
-1.43713e-69
-1.54959e-69
-1.65266e-69
-0
-1.79758e-69
-0
-0
-0
-0
-1.69232e-69
-0
-0
-1.39901e-69
-1.28703e-69
-0
-0
-0
-0
-0
-0
-0
-0
-1.62208e-07
-0.000124291
-0.00118783
-0.00321431
-0.00518858
-0.0066956
-0.00800262
-0.0096778
-0.0124202
-0.017068
-0.0243943
-0.0342676
-0.0436173
-0.0436696
-0.0230382
-0.00114831
-0
-0
-0
-0
-0
-0
-1.31976e-69
-0
-0
-0
-0
-0
-0
-0
-0
-1.90936e-69
-1.88438e-69
-0
-1.76047e-69
-0
-1.56537e-69
-0
-1.33535e-69
-0
-2.53243e-68
-0
-0
-0
-0
-0
-0
-0
-4.36875e-06
-0.000213086
-0.00105217
-0.00221323
-0.00320939
-0.00399825
-0.00485783
-0.00620624
-0.00860664
-0.0128568
-0.019828
-0.0296299
-0.0394981
-0.0408349
-0.021905
-0.0010803
-0
-1.62105e-69
-0
-0
-0
-0
-1.56886e-69
-1.60772e-69
-0
-0
-1.84248e-69
-0
-0
-1.99801e-69
-0
-0
-0
-0
-1.73224e-69
-0
-1.50198e-69
-1.37887e-69
-0
-0
-0
-0
-0
-0
-0
-0
-0
-1.65692e-08
-2.71551e-05
-0.000287658
-0.000810496
-0.00133279
-0.00174167
-0.00212698
-0.00269548
-0.00374555
-0.00575561
-0.00950879
-0.0159744
-0.025496
-0.0356262
-0.0379913
-0.0206298
-0.000983151
-0
-0
-6.58172e-68
-3.91331e-69
-0
-0
-1.86191e-69
-1.8944e-69
-0
-0
-0
-2.10574e-69
-2.1205e-69
-0
-0
-1.99655e-69
-1.90583e-69
-0
-0
-0
-0
-0
-0
-2.40757e-68
-0
-0
-0
-0
-0
-0
-1.55793e-14
-5.65425e-06
-9.74389e-05
-0.000313306
-0.000534435
-0.000692818
-0.000817311
-0.000993611
-0.0013515
-0.0021099
-0.0036906
-0.00686369
-0.0126812
-0.0217099
-0.0318404
-0.0349929
-0.0191301
-0.000852554
-0
-0
-0
-3.9153e-69
-0
-0
-0
-0
-0
-0
-0
-0
-0
-0
-0
-1.99801e-69
-0
-0
-0
-0
-0
-0
-0
-0
-0
-0
-1.66158e-68
-0
-0
-6.14653e-10
-6.82981e-06
-7.41723e-05
-0.000191359
-0.000278217
-0.000311341
-0.000316606
-0.000334406
-0.000408895
-0.000613421
-0.0011102
-0.00226596
-0.00481738
-0.00986747
-0.0181875
-0.0280353
-0.0317255
-0.017338
-0.000689523
-0
-1.63815e-69
-0
-0
-0
-0
-0
-0
-2.5676e-69
-2.55706e-69
-0
-0
-2.37247e-69
-0
-0
-0
-1.81257e-69
-0
-0
-1.34514e-69
-0
-0
-0
-0
-0
-0
-0
-0
-6.5197e-07
-3.80302e-05
-0.000154988
-0.000252444
-0.00026954
-0.000229844
-0.000176993
-0.000139571
-0.000129411
-0.000158297
-0.000264756
-0.000563879
-0.00135648
-0.00331135
-0.0075298
-0.0149462
-0.0242072
-0.0281482
-0.0152225
-0.000503484
-0
-1.65053e-69
-6.63686e-68
-8.98286e-68
-0
-0
-0
-2.92438e-69
-0
-0
-0
-0
-0
-0
-0
-0
-0
-0
-1.38125e-69
-0
-0
-0
-0
-0
-0
-0
-1.23251e-11
-2.40061e-05
-0.000254919
-0.000535814
-0.0006099
-0.000508341
-0.000346367
-0.000207659
-0.000119537
-7.4947e-05
-6.02138e-05
-7.13589e-05
-0.000128174
-0.000309441
-0.000848336
-0.00231687
-0.00574694
-0.0121524
-0.0205412
-0.0243857
-0.0128394
-0.000315615
-0
-0
-6.67182e-68
-8.99644e-68
-0
-0
-0
-7.50482e-68
-0
-0
-0
-0
-0
-0
-0
-0
-0
-1.43714e-69
-1.26302e-69
-0
-0
-0
-0
-0
-1.47284e-68
-1.95592e-06
-0.000232239
-0.00107808
-0.00174712
-0.00174863
-0.00133379
-0.000845902
-0.000469426
-0.000239536
-0.000120817
-6.76862e-05
-4.94951e-05
-5.48346e-05
-9.5455e-05
-0.000230605
-0.000645121
-0.00181589
-0.00465148
-0.0101216
-0.0174661
-0.0208179
-0.0103876
-0.00015748
-0
-0
-0
-0
-0
-0
-0
-0
-0
-7.56329e-68
-0
-0
-0
-0
-0
-0
-0
-0
-0
-0
-0
-1.79462e-68
-0
-1.46234e-68
-2.06979e-05
-0.000888638
-0.00316001
-0.0046591
-0.00453462
-0.00346884
-0.00225777
-0.00131042
-0.000703383
-0.000363635
-0.000192218
-0.000113834
-8.51524e-05
-8.98885e-05
-0.000139041
-0.000290356
-0.000712441
-0.00182241
-0.00439413
-0.00922711
-0.0155575
-0.0180271
-0.00818948
-5.62381e-05
-0
-0
-0
-0
-4.29469e-69
-0
-0
-0
-0
-0
-0
-2.8901e-69
-0
-0
-0
-0
-1.43454e-69
-0
-0
-9.17276e-70
-0
-0
-0
-2.0521e-05
-0.0014734
-0.00608249
-0.00956027
-0.00970323
-0.00774322
-0.00531448
-0.00330847
-0.00194019
-0.00110743
-0.000637903
-0.00038875
-0.000266651
-0.000220968
-0.000234946
-0.000327643
-0.000572166
-0.00114937
-0.00245825
-0.00515434
-0.00977308
-0.0152819
-0.0165405
-0.00655604
-1.27493e-05
-0
-0
-0
-9.0666e-68
-4.29637e-69
-0
-0
-0
-0
-8.24824e-68
-0
-2.92439e-69
-0
-0
-1.89441e-69
-0
-0
-0
-9.88114e-70
-0
-7.56834e-70
-0
-1.61952e-07
-0.000807533
-0.00687002
-0.0141216
-0.0163871
-0.0142452
-0.0104458
-0.00691465
-0.00432955
-0.00265757
-0.00164947
-0.00106818
-0.000747582
-0.000587847
-0.000539365
-0.00059363
-0.000789253
-0.00122697
-0.00211037
-0.00383918
-0.00695974
-0.011693
-0.0165696
-0.0164179
-0.00559977
-1.78536e-06
-0
-0
-0
-0
-4.29805e-69
-0
-9.86995e-68
-0
-0
-0
-0
-0
-0
-0
-0
-0
-0
-1.11485e-69
-0
-0
-0
-0
-2.71911e-05
-0.00261644
-0.0120034
-0.0197681
-0.0206365
-0.016905
-0.0120177
-0.00789598
-0.00501761
-0.00319393
-0.00209732
-0.00146043
-0.00110856
-0.00094224
-0.000917339
-0.00103698
-0.00136067
-0.00201328
-0.003211
-0.00535174
-0.00889372
-0.0138006
-0.018236
-0.0169479
-0.00521655
-2.79132e-07
-0
-0
-0
-0
-0
-0
)
;

boundaryField
{
    inlet
    {
        type            cyclic;
    }
    outlet
    {
        type            cyclic;
    }
    walls
    {
        type            calculated;
        value           nonuniform List<scalar> 
96
(
-3.84399
-3.84398
-3.84396
-3.84392
-3.84388
-3.84382
-3.84375
-3.84367
-3.84358
-3.84349
-3.84339
-3.8433
-3.84321
-3.84313
-3.84306
-3.843
-3.84294
-3.8429
-3.84286
-3.84283
-3.8428
-3.84278
-3.84276
-3.84274
-3.84273
-3.84272
-3.8427
-3.84269
-3.84268
-3.84267
-3.84266
-3.84265
-3.84265
-3.84264
-3.84264
-3.84263
-3.84263
-3.84263
-3.84264
-3.84264
-3.84265
-3.84267
-3.84269
-3.84272
-3.84275
-3.8428
-3.84284
-3.84287
-3.84287
-3.84284
-3.8428
-3.84275
-3.84272
-3.84269
-3.84267
-3.84265
-3.84264
-3.84264
-3.84263
-3.84263
-3.84263
-3.84264
-3.84264
-3.84265
-3.84265
-3.84266
-3.84267
-3.84268
-3.84269
-3.8427
-3.84272
-3.84273
-3.84274
-3.84276
-3.84278
-3.8428
-3.84283
-3.84286
-3.8429
-3.84294
-3.843
-3.84306
-3.84313
-3.84321
-3.8433
-3.84339
-3.84349
-3.84358
-3.84367
-3.84375
-3.84382
-3.84388
-3.84392
-3.84396
-3.84398
-3.84399
)
;
    }
    symPlanes
    {
        type            symmetry;
    }
}


// ************************************************************************* //
