/*--------------------------------*- C++ -*----------------------------------*\
| =========                 |                                                 |
| \\      /  F ield         | OpenFOAM: The Open Source CFD Toolbox           |
|  \\    /   O peration     | Version:  2506                                  |
|   \\  /    A nd           | Website:  www.openfoam.com                      |
|    \\/     M anipulation  |                                                 |
\*---------------------------------------------------------------------------*/
FoamFile
{
    version     2.0;
    format      ascii;
    arch        "LSB;label=32;scalar=64";
    class       volSymmTensorField;
    location    "2137";
    object      Sij;
}
// * * * * * * * * * * * * * * * * * * * * * * * * * * * * * * * * * * * * * //

dimensions      [0 0 -1 0 0 0 0];

internalField   nonuniform List<symmTensor> 
2304
(
(-5.68666e-17 0.00283946 7.01735 -0.00663688 -0.0265353 0.00718927)
(0 0.00716854 7.10975 -0.00547923 -0.0734321 0.00571979)
(0 0.00874933 7.2444 -0.00390155 -0.107359 0.00378253)
(-6.51078e-17 0.00819405 7.37582 -0.00260747 -0.129695 0.00216874)
(-6.81122e-17 0.00675965 7.48308 -0.00182126 -0.144458 0.00116293)
(-7.12552e-17 0.00529081 7.56422 -0.00143372 -0.155234 0.000623784)
(-7.45433e-17 0.004059 7.62412 -0.00125712 -0.163982 0.000345739)
(0 0.00303849 7.6677 -0.00117167 -0.171598 0.000189095)
(0 0.00214198 7.69821 -0.00112735 -0.178444 0.00010027)
(-8.53462e-17 0.00131754 7.71769 -0.00111662 -0.18475 6.81158e-05)
(-8.92845e-17 0.000555388 7.72769 -0.00114217 -0.190725 9.51806e-05)
(0 -0.000136903 7.72969 -0.00120311 -0.196559 0.00017701)
(0 -0.000756011 7.72511 -0.00129148 -0.202396 0.000303261)
(2.04448e-16 -0.00131088 7.7152 -0.00139434 -0.208312 0.000456434)
(-5.34705e-17 -0.00181979 7.70097 -0.00149646 -0.214313 0.000618823)
(0 -0.00230439 7.6831 -0.00157971 -0.220341 0.000769358)
(0 -0.00278507 7.66206 -0.00162542 -0.226269 0.000885788)
(0 -0.00327062 7.63811 -0.00161825 -0.231929 0.000951918)
(-1.28089e-16 -0.00375627 7.61151 -0.00154386 -0.23713 0.000950456)
(0 -0.00423411 7.58257 -0.00138768 -0.241661 0.000864815)
(0 -0.00470784 7.55161 -0.00113357 -0.245298 0.000675772)
(0 -0.00521026 7.51886 -0.000763446 -0.247801 0.000361601)
(0 -0.00581481 7.48419 -0.000263702 -0.248915 -9.55354e-05)
(0 -0.00663869 7.44694 0.000378892 -0.248399 -0.000705432)
(0 -0.00783314 7.40574 0.00118052 -0.246008 -0.00149172)
(0 -0.00956692 7.35852 0.00214592 -0.24151 -0.00245406)
(0 -0.0120129 7.30261 0.00326036 -0.234727 -0.00357773)
(0 -0.0153269 7.23484 0.00448914 -0.225568 -0.00482128)
(0 -0.019627 7.15187 0.00578667 -0.214061 -0.00613333)
(0 -0.0249955 7.05041 0.00711762 -0.200333 -0.00748139)
(-5.50242e-17 -0.0315444 6.9274 0.00858683 -0.184576 -0.00892204)
(-1.15127e-16 -0.0395804 6.77969 0.0103247 -0.166573 -0.010751)
(-6.02196e-17 -0.0494591 6.60281 0.0121998 -0.146121 -0.0126961)
(-6.29984e-17 -0.061396 6.39209 0.0139804 -0.123516 -0.0145478)
(0 -0.0755237 6.14299 0.0154548 -0.0992818 -0.0160846)
(-6.89467e-17 -0.0918105 5.85145 0.0163102 -0.0742416 -0.0169782)
(0 -0.109902 5.51465 0.0161246 -0.0496251 -0.0167813)
(3.77283e-17 -0.128992 5.13212 0.0144653 -0.0271112 -0.0150292)
(0 -0.147833 4.70691 0.0111097 -0.00866673 -0.0114754)
(0 -0.164981 4.24622 0.00632933 0.00391304 -0.00641551)
(0 -0.179307 3.76073 0.00123288 0.00965576 -0.000922634)
(0 -0.190603 3.26236 -0.00249233 0.00952973 0.00301485)
(4.72745e-17 -0.199669 2.76068 -0.00385831 0.00638659 0.00429788)
(2.4728e-17 -0.207767 2.26121 -0.00330082 0.00304085 0.003546)
(-1.29345e-17 -0.216241 1.76571 -0.00197165 0.000882831 0.00206333)
(0 -0.22676 1.27291 -0.000801651 3.79612e-06 0.000805289)
(7.0779e-18 -0.242633 0.778534 -0.000169127 -0.00011143 0.000155004)
(0 -0.273589 0.273589 7.27218e-06 -1.9043e-05 7.27008e-06)
(0 0.00862928 6.9258 -0.0178561 -0.0213092 0.00442153)
(-2.27466e-16 0.0217842 7.01662 -0.0149511 -0.0594841 0.00103131)
(0 0.0265862 7.14904 -0.0109685 -0.0882835 -0.00346449)
(0 0.0249001 7.27839 -0.00765686 -0.108573 -0.00731381)
(0 0.0205459 7.38413 -0.00558212 -0.123031 -0.00985617)
(-2.72449e-16 0.0160873 7.46427 -0.0044946 -0.134117 -0.0113391)
(0 0.0123467 7.52353 -0.00394429 -0.143242 -0.0121998)
(-2.98173e-16 0.00924593 7.56671 -0.00363827 -0.151111 -0.0127402)
(-1.55966e-16 0.00652061 7.59699 -0.00344977 -0.158054 -0.0130895)
(0 0.0040139 7.61635 -0.00335512 -0.164293 -0.0132808)
(-3.41385e-16 0.00169666 7.62635 -0.00335668 -0.170019 -0.0133178)
(-3.57138e-16 -0.000407974 7.62845 -0.00344887 -0.175395 -0.0132155)
(-1.86809e-16 -0.00229015 7.62404 -0.00360905 -0.180544 -0.0130026)
(0 -0.00397754 7.61438 -0.00380245 -0.185533 -0.0127203)
(0 -0.00552635 7.60042 -0.00398864 -0.190373 -0.0124113)
(-2.13882e-16 -0.00700309 7.58284 -0.00412073 -0.195026 -0.0121232)
(0 -0.00847059 7.56208 -0.0041513 -0.199408 -0.0119028)
(0 -0.00995602 7.53837 -0.00404166 -0.203402 -0.0117842)
(0 -0.0114448 7.51195 -0.00375619 -0.206881 -0.011801)
(2.56178e-16 -0.0129119 7.4831 -0.00325896 -0.209705 -0.0119866)
(-2.67999e-16 -0.0143674 7.45213 -0.00251038 -0.211729 -0.012381)
(2.80366e-16 -0.0159089 7.41926 -0.00146579 -0.212798 -0.0130317)
(0 -0.0177575 7.38438 -8.84974e-05 -0.212745 -0.0139814)
(-3.06838e-16 -0.0202696 7.34685 0.00165619 -0.211405 -0.0152609)
(-1.60498e-16 -0.023905 7.30536 0.00380385 -0.208611 -0.0169134)
(0 -0.0291749 7.25789 0.00636147 -0.204211 -0.0189363)
(-1.75653e-16 -0.0366043 7.20184 0.00929147 -0.198088 -0.02129)
(-3.67516e-16 -0.0466675 7.13411 0.0125108 -0.190183 -0.023881)
(0 -0.0597255 7.05143 0.0159108 -0.180515 -0.0265902)
(0 -0.0760261 6.95053 0.0194015 -0.169201 -0.0293289)
(-2.10389e-16 -0.0958995 6.8284 0.0231864 -0.156471 -0.0322089)
(0 -0.120272 6.68193 0.0275143 -0.142228 -0.0356653)
(0 -0.150221 6.50682 0.0320786 -0.126353 -0.0392277)
(0 -0.186397 6.29854 0.0363613 -0.109081 -0.0424441)
(0 -0.229228 6.05268 0.0398769 -0.0907162 -0.0448519)
(0 -0.278669 5.76515 0.0419206 -0.0716637 -0.0457841)
(0 -0.33372 5.43288 0.0415568 -0.0525476 -0.0443547)
(1.44257e-16 -0.392012 5.05488 0.0378256 -0.0343261 -0.0396594)
(0 -0.449784 4.63345 0.0302063 -0.0183419 -0.0312316)
(0 -0.502557 4.17502 0.0192028 -0.00619138 -0.0196689)
(0 -0.546643 3.68997 0.00718505 0.000576961 -0.00718093)
(0 -0.581169 3.19083 -0.00203714 0.00204448 0.00219572)
(0 -0.608491 2.68826 -0.00607745 0.00059693 0.00608452)
(4.72745e-17 -0.632434 2.18885 -0.00571532 -0.0010898 0.00556361)
(0 -0.656852 1.69526 -0.00340651 -0.00175469 0.00323295)
(0 -0.685629 1.20743 -0.00121282 -0.00142865 0.00107782)
(0 -0.723683 0.723683 -4.3025e-05 -0.000685479 -4.30389e-05)
(0 -0.778534 0.242632 0.000155012 -0.000111426 -0.000169131)
(-4.15684e-16 0.0145008 6.76318 -0.0270195 -0.0158253 0.012738)
(-4.34866e-16 0.0366153 6.84717 -0.0229472 -0.0447701 0.00894198)
(-4.54933e-16 0.0447103 6.96984 -0.0173306 -0.0679837 0.00388186)
(0 0.041914 7.09008 -0.0125881 -0.0858317 -0.000292383)
(0 0.0346294 7.18887 -0.00951709 -0.0996595 -0.00287562)
(0 0.0271511 7.26412 -0.00780654 -0.110806 -0.00422612)
(0 0.0208622 7.31997 -0.00685859 -0.120116 -0.00490908)
(0 0.0156377 7.36074 -0.0062758 -0.128079 -0.0053021)
(0 0.0110411 7.38937 -0.00587926 -0.134981 -0.00556424)
(0 0.00681294 7.40774 -0.00562919 -0.141025 -0.00572982)
(3.26327e-16 0.00290561 7.41732 -0.00552234 -0.146378 -0.005795)
(-3.41385e-16 -0.000642541 7.41949 -0.0055457 -0.151179 -0.00576844)
(7.14276e-16 -0.00381649 7.41556 -0.00566332 -0.155527 -0.00567801)
(0 -0.00666494 7.40669 -0.0058227 -0.159482 -0.00557083)
(0 -0.00928507 7.39377 -0.00596395 -0.163062 -0.00550002)
(-4.08895e-16 -0.0117919 7.37739 -0.00601914 -0.166256 -0.00552854)
(0 -0.0142945 7.35793 -0.00592101 -0.16902 -0.00572051)
(8.95006e-16 -0.0168412 7.33557 -0.00561576 -0.171296 -0.00612351)
(4.68153e-16 -0.0194082 7.31047 -0.00505483 -0.173025 -0.0067812)
(0 -0.0219528 7.28283 -0.00418992 -0.174143 -0.00773367)
(0 -0.0244882 7.25291 -0.00296785 -0.174594 -0.00902627)
(0 -0.0271726 7.22083 -0.00132684 -0.174313 -0.0107142)
(0 -0.0303715 7.18649 0.000789322 -0.173226 -0.0128477)
(0 -0.0346831 7.14925 0.00343275 -0.171247 -0.0154655)
(0 -0.0408777 7.10792 0.00664787 -0.168284 -0.0186322)
(0 -0.049809 7.06066 0.0104402 -0.164254 -0.022354)
(0 -0.0623586 7.0051 0.0147594 -0.159088 -0.0265929)
(0 -0.07933 6.93843 0.0194958 -0.152739 -0.0312427)
(3.67516e-16 -0.101348 6.85762 0.0244973 -0.145208 -0.0361532)
(0 -0.128845 6.75959 0.029601 -0.136604 -0.0411795)
(0 -0.162365 6.64137 0.0350251 -0.127257 -0.0463901)
(0 -0.203424 6.49998 0.0410754 -0.117119 -0.0522755)
(0 -0.253792 6.33158 0.0473498 -0.106036 -0.058258)
(0 -0.314574 6.13219 0.0532131 -0.094152 -0.0637914)
(2.40878e-16 -0.386566 5.89774 0.0581074 -0.0814747 -0.0683003)
(0 -0.469869 5.62424 0.0611912 -0.0678912 -0.070905)
(0 -0.563067 5.30822 0.0612929 -0.0533396 -0.070361)
(0 -0.66248 4.94755 0.0571027 -0.0380815 -0.0652438)
(0 -0.761954 4.54264 0.0476734 -0.0230536 -0.0544816)
(0 -0.853723 4.09755 0.0330847 -0.0101471 -0.0382401)
(0 -0.930735 3.6209 0.0160866 -0.00238122 -0.0190588)
(-1.65162e-16 -0.990524 3.12545 0.00220533 -0.000914362 -0.00336292)
(-1.72784e-16 -1.03659 2.62399 -0.00459812 -0.00294978 0.00425857)
(0 -1.07537 2.12577 -0.00505447 -0.00478024 0.00487926)
(0 -1.11323 1.63577 -0.00256233 -0.00478823 0.00241334)
(-4.9456e-17 -1.15565 1.15565 -7.24677e-05 -0.00332814 -7.25011e-05)
(-2.58691e-17 -1.20743 0.685629 0.00107784 -0.00142864 -0.00121284)
(0 -1.27291 0.22676 0.000805302 3.80581e-06 -0.000801658)
(0 0.0198973 6.36516 -0.0336839 -0.0100273 0.0578598)
(0 0.0502704 6.43241 -0.0291068 -0.0291335 0.0548981)
(-4.34866e-16 0.0614616 6.53107 -0.0227362 -0.0461249 0.0507146)
(0 0.0577348 6.62857 -0.0172348 -0.0608359 0.0475102)
(-4.75926e-16 0.0478184 6.70952 -0.0135112 -0.0733536 0.0458174)
(-4.97887e-16 0.0375743 6.77172 -0.0112804 -0.0839571 0.0452011)
(0 0.0289126 6.81809 -0.00992224 -0.0929371 0.0450711)
(0 0.021689 6.85194 -0.00901066 -0.100563 0.0450545)
(-5.70042e-16 0.0153268 6.87563 -0.00834258 -0.107053 0.0450069)
(0 0.00947957 6.89077 -0.00786328 -0.112581 0.0449138)
(-6.23865e-16 0.00408268 6.89864 -0.00755903 -0.117287 0.0447984)
(0 -0.000815272 6.90042 -0.00740708 -0.121278 0.0446691)
(0 -0.00519867 6.89718 -0.00736012 -0.124635 0.04451)
(0 -0.00913939 6.88987 -0.00735304 -0.127406 0.0442813)
(0 -0.012776 6.87918 -0.00731371 -0.129622 0.0439321)
(3.90859e-16 -0.0162723 6.86559 -0.00716239 -0.131296 0.0433958)
(0 -0.0197848 6.84936 -0.00682234 -0.13243 0.0425989)
(0 -0.0233873 6.83062 -0.0062345 -0.133023 0.0414803)
(0 -0.0270552 6.80942 -0.00534736 -0.133083 0.0399785)
(0 -0.0307359 6.78583 -0.00411074 -0.132624 0.0380338)
(4.89756e-16 -0.034452 6.7599 -0.00246934 -0.131672 0.0355834)
(5.12355e-16 -0.0384201 6.73158 -0.000354736 -0.130249 0.0325576)
(0 -0.0431453 6.70057 0.00230651 -0.128365 0.0288918)
(0 -0.0494334 6.66621 0.00558177 -0.126006 0.0245236)
(0 -0.0583208 6.62749 0.00951435 -0.123147 0.0193913)
(1.22735e-15 -0.0709734 6.58291 0.0141072 -0.119763 0.0134779)
(0 -0.0885926 6.5306 0.0193121 -0.115817 0.00680265)
(0 -0.11229 6.46839 0.0250181 -0.111263 -0.000547892)
(0 -0.14297 6.39388 0.0310531 -0.106066 -0.00843219)
(0 -0.181315 6.30455 0.0371524 -0.100294 -0.016647)
(-3.84475e-16 -0.22811 6.19772 0.0434649 -0.0943415 -0.0250606)
(0 -0.285296 6.07062 0.0503086 -0.0882278 -0.0339136)
(0 -0.35516 5.92057 0.0572789 -0.0818344 -0.0428657)
(0 -0.439263 5.74471 0.0638172 -0.0752076 -0.0516184)
(4.60507e-16 -0.5389 5.53989 0.0695255 -0.0680639 -0.0597915)
(0 -0.654609 5.30266 0.0737073 -0.0597747 -0.0666657)
(0 -0.785105 5.0293 0.0752363 -0.0495587 -0.0710544)
(-2.63622e-16 -0.926204 4.71614 0.0725916 -0.0368741 -0.0712879)
(0 -1.0702 4.36016 0.0641499 -0.0220764 -0.0654431)
(0 -1.20629 3.96031 0.0485526 -0.00728619 -0.0519852)
(-3.01826e-16 -1.32296 3.51956 0.0278344 0.002108 -0.0314407)
(3.15754e-16 -1.41391 3.0477 0.00925251 0.00273991 -0.0117077)
(0 -1.48196 2.55921 -0.000857975 -0.0019698 -0.000470573)
(0 -1.53562 2.06805 -0.00255504 -0.00612935 0.00193706)
(0 -1.5843 1.5843 -0.000118332 -0.00684556 -0.000118385)
(0 -1.63577 1.11323 0.00241339 -0.00478823 -0.00256237)
(0 -1.69526 0.656852 0.00323298 -0.00175468 -0.00340654)
(0 -1.76571 0.216241 0.00206334 0.00088285 -0.00197166)
(7.59644e-16 0.0239171 5.62092 -0.0375162 -0.00491461 0.0771164)
(-1.58939e-15 0.0604856 5.66417 -0.0331087 -0.0151726 0.0722421)
(0 0.0741098 5.72848 -0.0268631 -0.0260487 0.0649195)
(0 0.0698417 5.79342 -0.0212727 -0.0369527 0.0582758)
(0 0.0580493 5.84863 -0.0172541 -0.047153 0.053406)
(9.51852e-16 0.0457303 5.89182 -0.0146318 -0.0562027 0.0501245)
(4.97887e-16 0.0352195 5.92422 -0.0128786 -0.063974 0.0478724)
(0 0.0264044 5.94774 -0.0116099 -0.0705268 0.0462214)
(0 0.0186348 5.96397 -0.0106257 -0.0759869 0.0449509)
(0 0.0115103 5.97411 -0.00985947 -0.0804786 0.0439783)
(0 0.0049503 5.97914 -0.00928404 -0.0841061 0.0432668)
(0 -0.000996946 5.97993 -0.00886574 -0.0869495 0.0427683)
(6.52653e-16 -0.00632245 5.97722 -0.00854837 -0.089068 0.0424145)
(0 -0.0111196 5.97165 -0.00825971 -0.0905033 0.0421184)
(0 -0.01556 5.96366 -0.00792327 -0.0912896 0.0417927)
(0 -0.0198462 5.95358 -0.00745757 -0.0914637 0.0413447)
(-7.81718e-16 -0.0241733 5.9416 -0.00678746 -0.0910638 0.0406875)
(8.1779e-16 -0.0286444 5.92776 -0.0058591 -0.090141 0.0397597)
(8.55527e-16 -0.0332531 5.91205 -0.00462758 -0.0887625 0.038506)
(0 -0.0379669 5.8944 -0.00304941 -0.0870042 0.0368758)
(9.36306e-16 -0.0428455 5.87459 -0.0010756 -0.0849464 0.0348148)
(0 -0.0481823 5.85229 0.00136207 -0.0826622 0.0322523)
(-1.02471e-15 -0.0545988 5.82695 0.00435287 -0.0802022 0.0290892)
(1.072e-15 -0.0630332 5.79785 0.0079783 -0.0775915 0.0252437)
(5.60732e-16 -0.0746979 5.76414 0.0122754 -0.0748328 0.0207192)
(0 -0.0909721 5.72475 0.0172458 -0.0719151 0.0155387)
(-6.13676e-16 -0.113267 5.67845 0.0228554 -0.0688021 0.00975364)
(0 -0.142908 5.62393 0.0290147 -0.065433 0.00348042)
(0 -0.181036 5.55982 0.035571 -0.0617275 -0.00312542)
(0 -0.228637 5.48455 0.0421803 -0.0576292 -0.00982405)
(7.35032e-16 -0.286842 5.39626 0.0487855 -0.053299 -0.0164658)
(0 -0.357676 5.29248 0.0555158 -0.0490345 -0.024651)
(-8.04434e-16 -0.443507 5.17238 0.0620752 -0.0452194 -0.032694)
(0 -0.546339 5.03477 0.06822 -0.0417826 -0.0402353)
(0 -0.668056 4.87804 0.0738597 -0.0383293 -0.047164)
(0 -0.809957 4.7 0.0786803 -0.0340858 -0.0532711)
(0 -0.971731 4.49756 0.0819602 -0.0279797 -0.0581755)
(0 -1.15024 4.26625 0.0823757 -0.0189252 -0.061118)
(0 -1.3384 3.99987 0.0778139 -0.00640877 -0.0605829)
(0 -1.52455 3.69099 0.0644167 0.00833501 -0.0537145)
(2.88513e-16 -1.69275 3.33273 0.0418102 0.0177498 -0.0368267)
(3.01826e-16 -1.82947 2.92452 0.0182692 0.015948 -0.0166777)
(-3.15754e-16 -1.93188 2.47676 0.00333056 0.00641408 -0.0038312)
(-1.65162e-16 -2.00737 2.00737 -0.000572034 -0.00256688 -0.000572091)
(-1.72784e-16 -2.06805 1.53562 0.00193712 -0.00612934 -0.00255509)
(0 -2.12577 1.07537 0.00487931 -0.00478023 -0.00505451)
(9.4549e-17 -2.18885 0.632434 0.00556365 -0.00108977 -0.00571535)
(0 -2.26122 0.207767 0.00354602 0.00304088 -0.00330083)
(7.26136e-16 0.0262162 4.67996 -0.0390404 -0.00195737 0.0280008)
(0 0.0664194 4.70241 -0.0352128 -0.0066882 0.0223228)
(0 0.0816795 4.7373 -0.0296234 -0.0128316 0.0140589)
(0 0.077367 4.77476 -0.0243688 -0.0198196 0.00608412)
(0 0.06463 4.80859 -0.0203224 -0.0268943 -0.0002899)
(0 0.0510812 4.83619 -0.0174484 -0.0334629 -0.00501512)
(9.51852e-16 0.0393619 4.85722 -0.0153612 -0.0392144 -0.00850978)
(0 0.0294527 4.87237 -0.0137523 -0.0440406 -0.0111582)
(0 0.0207073 4.88253 -0.012444 -0.0479499 -0.013198)
(0 0.0127093 4.88857 -0.0113657 -0.0509934 -0.014751)
(-5.70042e-16 0.00536474 4.89121 -0.0104796 -0.0532327 -0.0158958)
(0 -0.00128915 4.89103 -0.0097424 -0.0547213 -0.0167166)
(-1.8716e-15 -0.00725646 4.88853 -0.00909101 -0.0555021 -0.0173123)
(6.52653e-16 -0.0126477 4.88406 -0.00845015 -0.0556073 -0.0177929)
(-6.8277e-16 -0.017655 4.87792 -0.00774547 -0.0550713 -0.0182592)
(-7.14276e-16 -0.0225032 4.8703 -0.00690265 -0.0539422 -0.0188052)
(0 -0.0274113 4.86132 -0.00585809 -0.0522782 -0.0195072)
(0 -0.0325108 4.85104 -0.00457193 -0.0501574 -0.0204021)
(0 -0.0378337 4.83937 -0.00301091 -0.0476761 -0.0215147)
(0 -0.0434019 4.82611 -0.0011376 -0.0449319 -0.0228657)
(0 -0.0493491 4.81086 0.00109692 -0.0420142 -0.0244879)
(0 -0.0560605 4.79305 0.00376866 -0.0389899 -0.0264437)
(9.79511e-16 -0.0642447 4.77197 0.00697987 -0.03589 -0.0288374)
(0 -0.0749142 4.74685 0.0108233 -0.0327186 -0.0317652)
(0 -0.0893618 4.71693 0.015343 -0.0294438 -0.0352385)
(5.60732e-16 -0.109046 4.68147 0.0205478 -0.0260047 -0.0392404)
(-5.86607e-16 -0.135445 4.63985 0.0264156 -0.0223127 -0.0437326)
(-6.13676e-16 -0.169955 4.59151 0.0328849 -0.0182612 -0.0486182)
(6.41994e-16 -0.21383 4.53599 0.0398852 -0.0137311 -0.0537975)
(0 -0.268267 4.47281 0.0472306 -0.00864883 -0.0590893)
(0 -0.33491 4.40144 0.0544158 -0.0034695 -0.0640501)
(0 -0.415477 4.32129 0.0606726 0.00168347 -0.0680258)
(0 -0.511845 4.23221 0.0660447 0.00693989 -0.0713721)
(0 -0.626397 4.13428 0.0709886 0.0119461 -0.0742541)
(0 -0.761478 4.02737 0.0754596 0.0167842 -0.0766813)
(0 -0.919163 3.91094 0.0793347 0.021722 -0.0785171)
(0 -1.10057 3.78332 0.0822941 0.0270907 -0.0792874)
(0 -1.30492 3.6409 0.0835936 0.0332175 -0.0779178)
(0 -1.52829 3.47702 0.0816951 0.04052 -0.0725604)
(0 -1.7624 3.28131 0.070564 0.0495507 -0.0603596)
(0 -1.9918 3.03899 0.0476197 0.0519993 -0.0369222)
(2.88513e-16 -2.19574 2.73253 0.0211461 0.0419004 -0.0125981)
(-3.01826e-16 -2.3586 2.3586 0.00212257 0.0228178 0.00212254)
(-3.15754e-16 -2.47676 1.93188 -0.00383115 0.00641409 0.00333051)
(-1.65162e-16 -2.55921 1.48196 -0.000470519 -0.00196979 -0.000858025)
(-1.72784e-16 -2.62399 1.03659 0.00425862 -0.00294975 -0.00459817)
(-9.03784e-17 -2.68826 0.608491 0.00608456 0.000596969 -0.00607748)
(2.36372e-17 -2.76068 0.199669 0.0042979 0.00638664 -0.00385832)
(-6.94106e-16 0.0273426 3.81119 -0.0393802 -0.000680753 0.00595619)
(0 0.0694842 3.8205 -0.0361129 -0.00257891 0.00304971)
(0 0.08595 3.83706 -0.0312056 -0.00548767 -0.000863924)
(7.94697e-16 0.0820368 3.85778 -0.0263909 -0.0091883 -0.00463075)
(0 0.0690383 3.87893 -0.0224666 -0.0132871 -0.00763246)
(0 0.0548288 3.89757 -0.0194829 -0.017354 -0.00989436)
(0 0.0422979 3.91227 -0.0171653 -0.0210438 -0.0116649)
(0 0.0315799 3.92285 -0.0152776 -0.0241367 -0.0131462)
(0 0.0220947 3.92976 -0.0136742 -0.0265366 -0.0144489)
(0 0.0134395 3.93362 -0.0122913 -0.0282216 -0.0156165)
(-2.17959e-15 0.00550992 3.93498 -0.0110878 -0.0292105 -0.0166721)
(1.14008e-15 -0.0016742 3.93426 -0.0100147 -0.0295327 -0.0176516)
(1.19269e-15 -0.00813354 3.93179 -0.00900521 -0.0292175 -0.0186068)
(1.24773e-15 -0.0139924 3.92779 -0.00798445 -0.0282911 -0.0196007)
(1.30531e-15 -0.0194542 3.92244 -0.00688533 -0.026788 -0.0206875)
(0 -0.0247558 3.91587 -0.00564649 -0.0247625 -0.0219171)
(-7.14276e-16 -0.0301323 3.90818 -0.00422082 -0.0222795 -0.0233284)
(0 -0.0357475 3.89939 -0.00258394 -0.0194204 -0.0249356)
(0 -0.0416911 3.88941 -0.00070946 -0.0162778 -0.0267609)
(0 -0.0480668 3.87793 0.00144565 -0.0129323 -0.0288452)
(0 -0.0551048 3.86445 0.00394871 -0.009443 -0.0312598)
(-8.95006e-16 -0.0632757 3.84831 0.00689891 -0.00583557 -0.034106)
(0 -0.0733632 3.82874 0.0104111 -0.00209924 -0.0374974)
(0 -0.08643 3.80499 0.0145939 0.0017971 -0.0415545)
(0 -0.103774 3.77641 0.0195221 0.00593224 -0.0463963)
(0 -0.126831 3.74255 0.0252285 0.010414 -0.0520737)
(1.12146e-15 -0.157039 3.7032 0.031704 0.0153707 -0.0586153)
(0 -0.195749 3.65837 0.0389025 0.0209232 -0.0659856)
(0 -0.24419 3.60823 0.0467855 0.0271635 -0.0741502)
(1.28399e-15 -0.303495 3.55304 0.0552973 0.0341165 -0.0829542)
(0 -0.374959 3.49326 0.0633558 0.0416764 -0.0917192)
(-7.0261e-16 -0.460538 3.43026 0.0696704 0.0494248 -0.0963094)
(7.35032e-16 -0.562344 3.36428 0.0747252 0.0573919 -0.099821)
(7.68951e-16 -0.682415 3.29616 0.0791033 0.0653459 -0.102855)
(0 -0.82317 3.22681 0.0823771 0.0730465 -0.105048)
(0 -0.98718 3.15666 0.0839137 0.0803466 -0.105683)
(0 -1.1768 3.08501 0.0828387 0.0872055 -0.103638)
(0 -1.39358 3.00913 0.078238 0.0936075 -0.0974224)
(0 -1.6374 2.92312 0.0702084 0.0995917 -0.0855072)
(0 -1.90592 2.81732 0.0528763 0.106241 -0.066095)
(-5.27244e-16 -2.1933 2.67805 0.027986 0.10097 -0.0329167)
(0 -2.47944 2.47944 0.00389881 0.0750638 0.00389885)
(5.77026e-16 -2.73253 2.19574 -0.0125981 0.0419003 0.0211461)
(0 -2.92452 1.82947 -0.0166777 0.015948 0.0182692)
(0 -3.0477 1.41391 -0.0117076 0.00273992 0.00925248)
(-3.30325e-16 -3.12545 0.990524 -0.00336288 -0.000914328 0.0022053)
(-8.63919e-17 -3.19083 0.581169 0.00219575 0.00204453 -0.00203716)
(0 -3.26236 0.190603 0.00301487 0.00952979 -0.00249234)
(1.32698e-15 0.0276949 3.13183 -0.0391067 -4.16307e-06 0.0374378)
(0 0.0706609 3.13237 -0.0362636 -0.000276563 0.0351705)
(0 0.0880648 3.13654 -0.0319153 -0.0011116 0.0318626)
(7.59644e-16 0.0848681 3.14571 -0.0275187 -0.00252018 0.0285433)
(-7.94697e-16 0.072086 3.15799 -0.0237796 -0.00439343 0.0257493)
(0 0.057612 3.17035 -0.0207833 -0.00648649 0.0234964)
(1.73946e-15 0.0445401 3.18069 -0.0183247 -0.00849637 0.0216004)
(9.09866e-16 0.0331976 3.18824 -0.0162234 -0.0101638 0.0199098)
(0 0.0231136 3.19308 -0.0143664 -0.011334 0.018344)
(0 0.0139208 3.19558 -0.0127025 -0.0119363 0.0168734)
(0 0.00550825 3.19616 -0.0111933 -0.0119579 0.0154789)
(1.0898e-15 -0.00212379 3.19511 -0.00978894 -0.0114106 0.0141252)
(0 -0.00901415 3.19261 -0.00842288 -0.0103157 0.0127614)
(0 -0.0152987 3.18879 -0.00702443 -0.00869634 0.0113285)
(0 -0.0211874 3.18373 -0.00553724 -0.00658784 0.00978201)
(0 -0.0269227 3.17752 -0.00391439 -0.00404706 0.00808464)
(0 -0.0327525 3.17022 -0.00212255 -0.00113398 0.00620774)
(0 -0.0388758 3.16184 -0.000145149 0.00208383 0.00414022)
(1.49447e-15 -0.0454485 3.15225 0.00204981 0.00553827 0.00184834)
(0 -0.0526673 3.14116 0.00452494 0.00918442 -0.0007339)
(8.1779e-16 -0.0608594 3.12804 0.00737533 0.0130017 -0.003709)
(8.55527e-16 -0.0705817 3.11224 0.0107283 0.0169976 -0.00720878)
(-2.68502e-15 -0.0826719 3.09304 0.0147138 0.0212109 -0.0113721)
(0 -0.0982005 3.06981 0.0194564 0.0256878 -0.0163178)
(9.79511e-16 -0.118422 3.04212 0.0250542 0.0305111 -0.0221771)
(0 -0.144677 3.00979 0.0315525 0.0357701 -0.0289935)
(0 -0.178291 2.97297 0.038935 0.041556 -0.0367789)
(0 -0.220498 2.93208 0.0471173 0.047919 -0.0454432)
(1.17321e-15 -0.272436 2.88774 0.0559382 0.0548462 -0.0548549)
(2.4547e-15 -0.335154 2.84063 0.0651329 0.0622102 -0.0646883)
(0 -0.409586 2.79149 0.0737767 0.0700646 -0.0744435)
(0 -0.497488 2.74136 0.0810007 0.0781835 -0.0830657)
(1.40522e-15 -0.600956 2.69184 0.0866947 0.0861752 -0.0902367)
(-7.35032e-16 -0.721861 2.64435 0.0904815 0.0938121 -0.0953034)
(7.68951e-16 -0.862724 2.60011 0.0914821 0.100719 -0.0972311)
(0 -1.02672 2.55975 0.0886515 0.106702 -0.0949074)
(0 -1.21759 2.52277 0.0809886 0.111894 -0.0875168)
(0 -1.4393 2.48667 0.0680876 0.116696 -0.0749591)
(0 -1.69505 2.44605 0.0524541 0.121944 -0.0580278)
(0 -1.98557 2.39215 0.0264786 0.131286 -0.0373653)
(0 -2.31424 2.31424 -0.0104382 0.133872 -0.0104381)
(5.27244e-16 -2.67806 2.1933 -0.0329168 0.10097 0.0279861)
(0 -3.03899 1.9918 -0.0369222 0.0519992 0.0476197)
(2.88513e-16 -3.33273 1.69275 -0.0368267 0.0177498 0.0418102)
(0 -3.51956 1.32296 -0.0314407 0.00210801 0.0278344)
(1.57877e-16 -3.6209 0.930735 -0.0190588 -0.00238119 0.0160866)
(8.25812e-17 -3.68997 0.546643 -0.00718091 0.000577013 0.00718503)
(-4.31959e-17 -3.76073 0.179307 -0.00092262 0.00965583 0.00123287)
(0 0.0274192 2.61033 -0.0383914 0.000292267 0.0474571)
(1.32698e-15 0.070275 2.60473 -0.035906 0.000790769 0.0447628)
(0 0.0883321 2.59994 -0.0320352 0.00111652 0.040495)
(0 0.0860546 2.60039 -0.028008 0.0011999 0.036068)
(1.51929e-15 0.0738668 2.60567 -0.0244536 0.000935392 0.0321843)
(0 0.0594794 2.61295 -0.0214802 0.000382739 0.028948)
(8.31369e-16 0.0461294 2.61977 -0.0189301 -0.00024926 0.0261984)
(-8.69732e-16 0.0343502 2.62492 -0.0166621 -0.000718304 0.0237782)
(0 0.0238075 2.62817 -0.0145886 -0.000850288 0.0215922)
(2.85556e-15 0.0141861 2.62968 -0.0126711 -0.000548852 0.019593)
(2.98732e-15 0.00537499 2.62969 -0.0108765 0.000217726 0.0177428)
(0 -0.00264499 2.62837 -0.00915781 0.00144785 0.0159874)
(2.17959e-15 -0.00993072 2.6258 -0.0074518 0.0031247 0.0142597)
(-2.28017e-15 -0.0166279 2.62201 -0.00569465 0.00522764 0.012489)
(0 -0.0229497 2.61703 -0.00384198 0.00772412 0.0106273)
(0 -0.0291396 2.61087 -0.00185876 0.0105624 0.00863658)
(0 -0.0354543 2.60358 0.000282085 0.0136989 0.00648527)
(-1.36554e-15 -0.0421251 2.59513 0.00260061 0.0170926 0.00415541)
(0 -0.0493721 2.58542 0.00514708 0.0207081 0.00159577)
(-7.47237e-16 -0.0574796 2.57414 0.00801145 0.0245363 -0.00128152)
(0 -0.0668671 2.56083 0.0113155 0.0285841 -0.00459426)
(0 -0.0781679 2.5449 0.0152084 0.0328721 -0.00849002)
(1.71105e-15 -0.0922436 2.52575 0.0198282 0.0374388 -0.0131136)
(-8.95006e-16 -0.110129 2.50295 0.0252973 0.0423144 -0.0185726)
(-9.36306e-16 -0.132988 2.47629 0.0317023 0.0475448 -0.0249623)
(0 -0.162019 2.44588 0.0390612 0.0531493 -0.0322724)
(0 -0.198383 2.41217 0.047305 0.0591335 -0.0404551)
(0 -0.243162 2.37589 0.0562568 0.0654413 -0.0492998)
(0 -0.297374 2.33795 0.0655903 0.0719706 -0.0585186)
(0 -0.362013 2.29929 0.0747592 0.0785532 -0.0675345)
(-1.22735e-15 -0.438059 2.26079 0.0831615 0.0848517 -0.075656)
(-1.28399e-15 -0.526754 2.22308 0.0901641 0.090723 -0.0832416)
(0 -0.629712 2.18777 0.0947683 0.0958678 -0.0883703)
(-7.02611e-16 -0.748973 2.15611 0.0958356 0.0999867 -0.0898217)
(7.35032e-16 -0.887301 2.12898 0.0923816 0.102999 -0.0865556)
(0 -1.04844 2.10681 0.083607 0.105193 -0.0777736)
(0 -1.23732 2.08921 0.0691367 0.107242 -0.0633031)
(0 -1.46012 2.07432 0.0495054 0.109945 -0.043848)
(0 -1.72338 2.05759 0.0286483 0.114379 -0.0209676)
(0 -2.03168 2.03168 0.00387668 0.122727 0.00387678)
(-4.81757e-16 -2.39215 1.98557 -0.0373654 0.131286 0.0264787)
(0 -2.81732 1.90592 -0.066095 0.106241 0.0528764)
(-5.27244e-16 -3.28131 1.7624 -0.0603596 0.0495506 0.070564)
(2.75787e-16 -3.69099 1.52455 -0.0537145 0.00833498 0.0644167)
(-2.88513e-16 -3.96031 1.20629 -0.0519852 -0.00728619 0.0485525)
(0 -4.09755 0.853723 -0.0382401 -0.0101471 0.0330847)
(0 -4.17502 0.502557 -0.0196689 -0.00619133 0.0192028)
(0 -4.24622 0.164981 -0.0064155 0.00391311 0.00632932)
(0 0.0266996 2.20167 -0.0374394 0.00035327 0.0384275)
(1.26845e-15 0.0687682 2.19229 -0.0352437 0.00112821 0.0361912)
(0 0.0872381 2.18176 -0.0317522 0.00208979 0.0325946)
(0 0.0859903 2.17632 -0.0280137 0.00315048 0.0287595)
(0 0.0746627 2.17663 -0.0246059 0.00404233 0.0252867)
(0 0.0606346 2.18022 -0.0216565 0.00466677 0.0222874)
(-7.94697e-16 0.0472231 2.18448 -0.0190404 0.00513258 0.0196367)
(-1.66274e-15 0.0351638 2.18796 -0.0166397 0.00564222 0.0172089)
(-8.69732e-16 0.0242732 2.19013 -0.0143828 0.00636587 0.0149322)
(0 0.0143016 2.191 -0.0122404 0.00740883 0.012775)
(-9.51852e-16 0.00514463 2.19065 -0.0101855 0.00881145 0.0107106)
(0 -0.00323324 2.18915 -0.0081758 0.0105771 0.00869431)
(0 -0.010905 2.18649 -0.00615366 0.0126914 0.00666931)
(0 -0.0180244 2.18266 -0.00406285 0.0151383 0.0045769)
(0 -0.0248051 2.17763 -0.00186985 0.0178922 0.00238382)
(0 -0.0314895 2.17138 0.000453646 0.0209127 6.29242e-05)
(0 -0.0383413 2.16392 0.00293764 0.0241784 -0.0024188)
(-1.30531e-15 -0.0456221 2.15522 0.0056157 0.0276766 -0.00509199)
(0 -0.0536114 2.14514 0.00856377 0.0313984 -0.00803635)
(1.42855e-15 -0.0626698 2.13342 0.0119 0.0353573 -0.0113711)
(-1.49447e-15 -0.0733027 2.11964 0.0157664 0.039569 -0.0152393)
(0 -0.0861964 2.1033 0.0203193 0.0440452 -0.0197999)
(0 -0.102201 2.08398 0.0256814 0.0487989 -0.0251828)
(1.71105e-15 -0.122282 2.06143 0.0319448 0.0538071 -0.0314644)
(8.95006e-16 -0.147474 2.03568 0.0391455 0.0590512 -0.0387044)
(-9.36306e-16 -0.178799 2.00708 0.0472303 0.0644616 -0.0468155)
(0 -0.217226 1.97632 0.0560332 0.0699549 -0.0556722)
(0 -0.263663 1.94433 0.0652544 0.0753812 -0.0649201)
(0 -0.319006 1.91218 0.0744305 0.0806034 -0.0741469)
(0 -0.384194 1.88093 0.0828472 0.0855099 -0.0825841)
(1.17321e-15 -0.460213 1.85149 0.0897397 0.0898863 -0.0893365)
(-1.22735e-15 -0.548169 1.82453 0.0942636 0.0932482 -0.0934733)
(0 -0.649531 1.8008 0.0952545 0.0951803 -0.09392)
(-1.34324e-15 -0.766412 1.78087 0.0916125 0.0958084 -0.0897776)
(0 -0.901748 1.76515 0.0826704 0.0955955 -0.0804502)
(-7.35032e-16 -1.05961 1.7537 0.0682941 0.0953491 -0.065821)
(7.68951e-16 -1.24566 1.7461 0.0488456 0.0961237 -0.0464112)
(0 -1.46794 1.74119 0.0255013 0.0987853 -0.023217)
(0 -1.73565 1.73565 0.00227845 0.104481 0.00227856)
(8.80388e-16 -2.05759 1.72338 -0.0209677 0.114379 0.0286484)
(-4.60507e-16 -2.44605 1.69505 -0.0580279 0.121944 0.0524542)
(0 -2.92312 1.6374 -0.0855072 0.0995916 0.0702084)
(0 -3.47702 1.52829 -0.0725604 0.04052 0.0816951)
(0 -3.99987 1.3384 -0.0605829 -0.00640881 0.0778139)
(-2.75787e-16 -4.36016 1.07019 -0.0654431 -0.0220764 0.0641499)
(0 -4.54264 0.761954 -0.0544816 -0.0230536 0.0476733)
(0 -4.63345 0.449784 -0.0312316 -0.0183418 0.0302063)
(0 -4.70691 0.147833 -0.0114753 -0.00866666 0.0111097)
(0 0.0256846 1.88117 -0.0363589 0.000313619 0.0360766)
(1.2125e-15 0.0665011 1.86965 -0.0343924 0.00113933 0.0341022)
(1.26845e-15 0.0851843 1.85567 -0.0311916 0.00243916 0.0309091)
(0 0.0850036 1.84635 -0.0276603 0.00411711 0.027388)
(0 0.0747075 1.84316 -0.0243444 0.00580713 0.0240929)
(0 0.0612417 1.844 -0.0213969 0.00729594 0.0211619)
(0 0.0479436 1.84635 -0.0187191 0.00860605 0.0184998)
(0 0.0357332 1.84858 -0.0162051 0.00989236 0.0159975)
(0 0.0245822 1.85 -0.0137899 0.0113066 0.0135919)
(8.69732e-16 0.0143154 1.85042 -0.0114484 0.0129501 0.0112575)
(0 0.00484262 1.84982 -0.00915844 0.0148631 0.00897411)
(0 -0.00388289 1.84819 -0.00688314 0.0170492 0.00670378)
(-1.99155e-15 -0.0119471 1.84545 -0.00457069 0.0194948 0.00439713)
(0 -0.0195093 1.84154 -0.00217153 0.0221894 0.00200295)
(0 -0.0267827 1.83642 0.000340063 0.0251184 -0.00050303)
(0 -0.0340086 1.83003 0.0029927 0.028255 -0.00314686)
(0 -0.0414591 1.82236 0.00582856 0.0316023 -0.0059742)