/*--------------------------------*- C++ -*----------------------------------*\
| =========                 |                                                 |
| \\      /  F ield         | OpenFOAM: The Open Source CFD Toolbox           |
|  \\    /   O peration     | Version:  2506                                  |
|   \\  /    A nd           | Website:  www.openfoam.com                      |
|    \\/     M anipulation  |                                                 |
\*---------------------------------------------------------------------------*/
FoamFile
{
    version     2.0;
    format      ascii;
    arch        "LSB;label=32;scalar=64";
    class       volSymmTensorField;
    location    "2137";
    object      Tij10;
}
// * * * * * * * * * * * * * * * * * * * * * * * * * * * * * * * * * * * * * //

dimensions      [0 0 0 0 0 0 0];

internalField   nonuniform List<symmTensor> 
2304
(
(-5.72344e-16 7.77413e-17 1.86781e-13 -5.79436e-19 -7.05897e-16 5.73776e-19)
(-4.68812e-16 2.05933e-16 1.99444e-13 -4.20189e-18 -2.05894e-15 4.16787e-18)
(-3.1956e-16 2.69359e-16 2.19108e-13 -7.91073e-18 -3.24598e-15 7.86477e-18)
(-1.83286e-16 2.69578e-16 2.39759e-13 -9.4219e-18 -4.21503e-15 9.38855e-18)
(-9.31213e-17 2.34619e-16 2.57738e-13 -9.02295e-18 -4.9751e-15 9.00827e-18)
(-4.38171e-17 1.91181e-16 2.72044e-13 -7.82818e-18 -5.58275e-15 7.82815e-18)
(-1.90117e-17 1.5108e-16 2.8301e-13 -6.49013e-18 -6.08702e-15 6.49992e-18)
(-6.00725e-18 1.15534e-16 2.91213e-13 -5.16814e-18 -6.51715e-15 5.18482e-18)
(-6.93996e-20 8.26612e-17 2.97076e-13 -3.83215e-18 -6.88623e-15 3.85341e-18)
(-5.4158e-19 5.13775e-17 3.00875e-13 -2.45952e-18 -7.20259e-15 2.48274e-18)
(-7.90929e-18 2.1961e-17 3.02851e-13 -1.07923e-18 -7.4747e-15 1.10101e-18)
(-2.15785e-17 -4.8225e-18 3.03265e-13 2.59224e-19 -7.71194e-15 -2.42497e-19)
(-4.01655e-17 -2.85409e-17 3.02391e-13 1.52315e-18 -7.92281e-15 -1.51498e-18)
(-6.14732e-17 -4.93948e-17 3.00484e-13 2.71225e-18 -8.11339e-15 -2.71549e-18)
(-8.33664e-17 -6.804e-17 2.97749e-13 3.85171e-18 -8.28642e-15 -3.86847e-18)
(-1.0342e-16 -8.53151e-17 2.94339e-13 4.97863e-18 -8.44147e-15 -5.00979e-18)
(-1.19181e-16 -1.02023e-16 2.9036e-13 6.12972e-18 -8.57478e-15 -6.17455e-18)
(-1.28943e-16 -1.18497e-16 2.85879e-13 7.31517e-18 -8.68066e-15 -7.37142e-18)
(-1.30916e-16 -1.34577e-16 2.80963e-13 8.51216e-18 -8.75303e-15 -8.57559e-18)
(-1.23518e-16 -1.50007e-16 2.75687e-13 9.68672e-18 -8.78596e-15 -9.75103e-18)
(-1.0512e-16 -1.64988e-16 2.70126e-13 1.08288e-17 -8.77391e-15 -1.08854e-17)
(-7.41941e-17 -1.80729e-16 2.64336e-13 1.1992e-17 -8.71091e-15 -1.20304e-17)
(-3.00737e-17 -1.99691e-16 2.58308e-13 1.33144e-17 -8.5898e-15 -1.33228e-17)
(2.66235e-17 -2.2549e-16 2.51947e-13 1.50104e-17 -8.4023e-15 -1.49783e-17)
(9.62641e-17 -2.62389e-16 2.45049e-13 1.73219e-17 -8.13819e-15 -1.72398e-17)
(1.76387e-16 -3.14337e-16 2.37325e-13 2.0437e-17 -7.78666e-15 -2.02998e-17)
(2.6283e-16 -3.84206e-16 2.28424e-13 2.44182e-17 -7.33938e-15 -2.42271e-17)
(3.48874e-16 -4.72691e-16 2.17995e-13 2.91229e-17 -6.79353e-15 -2.88873e-17)
(4.27312e-16 -5.77422e-16 2.05749e-13 3.41645e-17 -6.15488e-15 -3.39007e-17)
(4.93289e-16 -6.93032e-16 1.9153e-13 3.89619e-17 -5.43877e-15 -3.86888e-17)
(5.49254e-16 -8.13156e-16 1.75365e-13 4.29045e-17 -4.66826e-15 -4.26391e-17)
(6.12764e-16 -9.34068e-16 1.5742e-13 4.54728e-17 -3.86276e-15 -4.52209e-17)
(6.57733e-16 -1.04752e-15 1.37904e-13 4.59702e-17 -3.04691e-15 -4.57511e-17)
(6.69384e-16 -1.13901e-15 1.1724e-13 4.36876e-17 -2.26103e-15 -4.35177e-17)
(6.39818e-16 -1.19179e-15 9.60988e-14 3.82774e-17 -1.54971e-15 -3.81638e-17)
(5.65513e-16 -1.18956e-15 7.5359e-14 3.00429e-17 -9.54251e-16 -2.9981e-17)
(4.50832e-16 -1.12081e-15 5.60364e-14 2.01427e-17 -5.04241e-16 -2.01178e-17)
(3.12186e-16 -9.85197e-16 3.91311e-14 1.04909e-17 -2.08388e-16 -1.04848e-17)
(1.76679e-16 -7.98417e-16 2.54102e-14 3.10514e-18 -4.93736e-17 -3.10469e-18)
(7.19418e-17 -5.90454e-16 1.51983e-14 -8.98407e-19 1.15445e-17 8.98435e-19)
(1.21513e-17 -3.95461e-16 8.2949e-15 -1.89466e-18 1.98246e-17 1.8947e-18)
(-7.08443e-18 -2.38632e-16 4.08409e-15 -1.3466e-18 1.14844e-17 1.34655e-18)
(-6.44871e-18 -1.28658e-16 1.77865e-15 -6.01001e-19 4.13284e-18 6.00976e-19)
(-2.56926e-18 -6.06388e-17 6.59915e-16 -1.78238e-19 9.617e-19 1.78234e-19)
(-5.90497e-19 -2.377e-17 1.94089e-16 -3.1912e-20 1.28333e-19 3.19118e-20)
(-6.94398e-20 -6.95611e-18 3.90478e-17 -2.25607e-21 6.13123e-21 2.25607e-21)
(-2.76119e-21 -1.17774e-18 3.77901e-18 8.62274e-23 -1.24902e-22 -8.62274e-23)
(-1.94195e-23 -6.73017e-20 6.73016e-20 1.90348e-28 6.02974e-35 -1.90348e-28)
(-2.41848e-12 1.59992e-12 1.27816e-09 -9.74465e-15 -3.90144e-12 9.75294e-15)
(-3.8567e-13 4.23965e-12 1.36453e-09 -7.13699e-14 -1.14895e-11 7.1545e-14)
(2.59192e-12 5.54114e-12 1.49858e-09 -1.36566e-13 -1.84136e-11 1.37286e-13)
(5.44295e-12 5.52694e-12 1.63921e-09 -1.65578e-13 -2.43752e-11 1.67129e-13)
(7.5423e-12 4.77594e-12 1.76154e-09 -1.6096e-13 -2.92989e-11 1.63371e-13)
(8.90094e-12 3.84642e-12 1.85882e-09 -1.40968e-13 -3.3369e-11 1.44152e-13)
(9.76482e-12 2.98702e-12 1.93339e-09 -1.17223e-13 -3.67926e-11 1.21083e-13)
(1.03356e-11 2.22429e-12 1.98919e-09 -9.29354e-14 -3.97141e-11 9.73979e-14)
(1.07019e-11 1.51899e-12 2.0291e-09 -6.78263e-14 -4.22089e-11 7.28245e-14)
(1.08858e-11 8.48187e-13 2.05499e-09 -4.16571e-14 -4.43275e-11 4.71215e-14)
(1.08935e-11 2.17303e-13 2.06849e-09 -1.51052e-14 -4.61188e-11 2.09623e-14)
(1.07454e-11 -3.57892e-13 2.07138e-09 1.07781e-14 -4.76357e-11 -4.59797e-15)
(1.04751e-11 -8.68582e-13 2.06551e-09 3.5272e-14 -4.89275e-11 -2.88301e-14)
(1.01256e-11 -1.31904e-12 2.05262e-09 5.82857e-14 -5.00313e-11 -5.16311e-14)
(9.73796e-12 -1.72301e-12 2.0341e-09 8.02308e-14 -5.09668e-11 -7.34018e-14)
(9.35406e-12 -2.09789e-12 2.01098e-09 1.01754e-13 -5.17367e-11 -9.47772e-14)
(9.01219e-12 -2.46003e-12 1.98398e-09 1.23497e-13 -5.23273e-11 -1.1639e-13)
(8.73913e-12 -2.81588e-12 1.95354e-09 1.45606e-13 -5.27148e-11 -1.38379e-13)
(8.56098e-12 -3.16108e-12 1.92009e-09 1.67604e-13 -5.28742e-11 -1.60262e-13)
(8.50243e-12 -3.48923e-12 1.88414e-09 1.88824e-13 -5.27827e-11 -1.81363e-13)
(8.5895e-12 -3.8033e-12 1.84621e-09 2.09053e-13 -5.24202e-11 -2.01462e-13)
(8.84713e-12 -4.12753e-12 1.80669e-09 2.29262e-13 -5.17653e-11 -2.21521e-13)
(9.28734e-12 -4.51288e-12 1.76555e-09 2.51957e-13 -5.07892e-11 -2.44047e-13)
(9.90173e-12 -5.03505e-12 1.72193e-09 2.81001e-13 -4.94452e-11 -2.72925e-13)
(1.06824e-11 -5.78388e-12 1.67459e-09 3.20755e-13 -4.76871e-11 -3.12538e-13)
(1.15817e-11 -6.84349e-12 1.62169e-09 3.74647e-13 -4.54675e-11 -3.66361e-13)
(1.25214e-11 -8.27645e-12 1.56091e-09 4.43943e-13 -4.27475e-11 -4.35723e-13)
(1.33895e-11 -1.01011e-11 1.48987e-09 5.26408e-13 -3.95145e-11 -5.18449e-13)
(1.40682e-11 -1.22719e-11 1.4066e-09 6.15548e-13 -3.57964e-11 -6.08084e-13)
(1.44752e-11 -1.4679e-11 1.31e-09 7.0132e-13 -3.16677e-11 -6.94576e-13)
(1.46497e-11 -1.71886e-11 1.2002e-09 7.7303e-13 -2.72469e-11 -7.67165e-13)
(1.47698e-11 -1.97212e-11 1.07839e-09 8.22919e-13 -2.26704e-11 -8.17971e-13)
(1.45399e-11 -2.21164e-11 9.45913e-10 8.41302e-13 -1.80954e-11 -8.37358e-13)
(1.37782e-11 -2.40761e-11 8.0561e-10 8.16886e-13 -1.37218e-11 -8.1398e-13)
(1.24197e-11 -2.52523e-11 6.61926e-10 7.43345e-13 -9.76395e-12 -7.41412e-13)
(1.04744e-11 -2.52982e-11 5.20691e-10 6.23375e-13 -6.4166e-12 -6.2225e-13)
(8.06815e-12 -2.39532e-11 3.88654e-10 4.71342e-13 -3.81578e-12 -4.70797e-13)
(5.48378e-12 -2.1178e-11 2.72559e-10 3.12413e-13 -2.00018e-12 -3.12206e-13)
(3.12213e-12 -1.72703e-11 1.77745e-10 1.75067e-13 -8.92812e-13 -1.75012e-13)
(1.35295e-12 -1.28494e-11 1.06712e-10 7.89535e-14 -3.23149e-13 -7.89448e-14)
(3.34397e-13 -8.65599e-12 5.84265e-11 2.6519e-14 -8.75377e-14 -2.65185e-14)
(-3.63463e-14 -5.25861e-12 2.88717e-11 5.34841e-15 -1.41953e-14 -5.34842e-15)
(-7.41121e-14 -2.87164e-12 1.26866e-11 -2.04842e-16 4.29304e-16 2.04842e-16)
(-3.48169e-14 -1.39123e-12 4.815e-12 -5.96092e-16 9.45414e-16 5.96091e-16)
(-9.3295e-15 -5.75644e-13 1.48567e-12 -2.09509e-16 2.29771e-16 2.09509e-16)
(-1.33371e-15 -1.74557e-13 3.07403e-13 -2.70299e-17 1.61261e-17 2.70299e-17)
(-3.58455e-17 -1.34594e-14 1.34594e-14 8.32283e-23 2.77569e-29 -8.32283e-23)
(-2.76125e-21 -3.77901e-18 1.17774e-18 -8.62135e-23 -1.24882e-22 8.62135e-23)
(-1.47975e-09 5.67896e-10 2.63299e-07 -2.57393e-12 -5.98458e-10 2.57181e-12)
(-1.03416e-09 1.49834e-09 2.7896e-07 -1.9078e-11 -1.77983e-09 1.90738e-11)
(-3.92342e-10 1.94799e-09 3.03083e-07 -3.72992e-11 -2.90433e-09 3.73299e-11)
(1.81729e-10 1.93818e-09 3.28226e-07 -4.64337e-11 -3.92938e-09 4.65375e-11)
(5.60387e-10 1.67847e-09 3.50043e-07 -4.63533e-11 -4.82227e-09 4.65395e-11)
(7.66896e-10 1.36155e-09 3.67392e-07 -4.15741e-11 -5.58507e-09 4.18334e-11)
(8.72692e-10 1.0707e-09 3.80694e-07 -3.53046e-11 -6.23473e-09 3.56251e-11)
(9.30714e-10 8.13737e-10 3.90644e-07 -2.85656e-11 -6.78911e-09 2.89388e-11)
(9.63552e-10 5.76734e-10 3.97757e-07 -2.13762e-11 -7.26055e-09 2.17956e-11)
(9.7585e-10 3.51502e-10 4.02384e-07 -1.3733e-11 -7.65816e-09 1.41922e-11)
(9.67484e-10 1.3949e-10 4.04829e-07 -5.88308e-12 -7.99007e-09 6.37486e-12)
(9.41157e-10 -5.42952e-11 4.05411e-07 1.82255e-12 -8.26449e-09 -1.30509e-12)
(9.02752e-10 -2.27105e-10 4.04457e-07 9.13545e-12 -8.48889e-09 -8.59812e-12)
(8.60808e-10 -3.80528e-10 4.02261e-07 1.60018e-11 -8.66916e-09 -1.54482e-11)
(8.24171e-10 -5.19331e-10 3.9906e-07 2.25258e-11 -8.80883e-09 -2.1957e-11)
(8.02653e-10 -6.49501e-10 3.95023e-07 2.88888e-11 -8.90915e-09 -2.83025e-11)
(8.05676e-10 -7.7668e-10 3.90256e-07 3.52758e-11 -8.96935e-09 -3.46662e-11)
(8.3984e-10 -9.03099e-10 3.84823e-07 4.17257e-11 -8.98751e-09 -4.10846e-11)
(9.11113e-10 -1.02718e-09 3.78785e-07 4.80946e-11 -8.96174e-09 -4.74113e-11)
(1.02451e-09 -1.14644e-09 3.72214e-07 5.41836e-11 -8.89065e-09 -5.34459e-11)
(1.1849e-09 -1.26146e-09 3.65189e-07 5.99284e-11 -8.77342e-09 -5.91233e-11)
(1.39688e-09 -1.37993e-09 3.57769e-07 6.56044e-11 -8.60923e-09 -6.47187e-11)
(1.66204e-09 -1.51885e-09 3.49953e-07 7.19271e-11 -8.39633e-09 -7.09497e-11)
(1.97873e-09 -1.70539e-09 3.41826e-07 8.00541e-11 -8.13508e-09 -7.89789e-11)
(2.34533e-09 -1.97041e-09 3.33046e-07 9.12104e-11 -7.81734e-09 -9.00368e-11)
(2.74972e-09 -2.34351e-09 3.23234e-07 1.06389e-10 -7.43702e-09 -1.05126e-10)
(3.17194e-09 -2.84822e-09 3.11972e-07 1.2605e-10 -6.98994e-09 -1.2472e-10)
(3.58213e-09 -3.49413e-09 2.98817e-07 1.49752e-10 -6.47445e-09 -1.48389e-10)
(3.94581e-09 -4.27012e-09 2.83381e-07 1.75923e-10 -5.89279e-09 -1.74571e-10)
(4.23189e-09 -5.14278e-09 2.65409e-07 2.01948e-10 -5.25195e-09 -2.00659e-10)
(4.4354e-09 -6.06896e-09 2.44857e-07 2.24944e-10 -4.56618e-09 -2.23762e-10)
(4.59205e-09 -7.02445e-09 2.21893e-07 2.43322e-10 -3.86132e-09 -2.42269e-10)
(4.62081e-09 -7.95893e-09 1.96698e-07 2.55329e-10 -3.16485e-09 -2.54433e-10)
(4.4696e-09 -8.77276e-09 1.69723e-07 2.58161e-10 -2.50009e-09 -2.57439e-10)
(4.11659e-09 -9.34405e-09 1.41715e-07 2.4966e-10 -1.89065e-09 -2.49116e-10)
(3.5602e-09 -9.54097e-09 1.13687e-07 2.29042e-10 -1.35811e-09 -2.28663e-10)
(2.83267e-09 -9.24574e-09 8.6874e-08 1.97279e-10 -9.17894e-10 -1.97041e-10)
(2.01437e-09 -8.40223e-09 6.26063e-08 1.5732e-10 -5.76242e-10 -1.57189e-10)
(1.22744e-09 -7.06971e-09 4.20877e-08 1.13848e-10 -3.29576e-10 -1.13789e-10)
(5.96614e-10 -5.44248e-09 2.61019e-08 7.25321e-11 -1.6644e-10 -7.25124e-11)
(1.92688e-10 -3.80091e-09 1.47828e-08 3.88958e-11 -7.06499e-11 -3.88921e-11)
(1.69557e-11 -2.40481e-09 7.58783e-09 1.64721e-11 -2.33771e-11 -1.6472e-11)
(-2.01678e-11 -1.37202e-09 3.47318e-09 5.08265e-12 -5.42918e-12 -5.0827e-12)
(-1.27959e-11 -6.83965e-10 1.35207e-09 9.96343e-13 -7.32773e-13 -9.96349e-13)
(-3.62324e-12 -2.54033e-10 3.73276e-10 7.66178e-14 -3.02198e-14 -7.66179e-14)
(-2.95772e-13 -3.49965e-11 3.49965e-11 2.53349e-19 8.14041e-26 -2.53349e-19)
(-1.33371e-15 -3.07403e-13 1.74557e-13 2.70328e-17 1.61279e-17 -2.70329e-17)
(-6.94406e-20 -3.90477e-17 6.95609e-18 2.25618e-21 6.13153e-21 -2.25618e-21)
(-1.73433e-07 2.01574e-08 6.36688e-06 -5.88452e-11 -9.35236e-09 5.85382e-11)
(-1.68695e-07 5.26506e-08 6.64465e-06 -4.47299e-10 -2.84181e-08 4.44714e-10)
(-1.61734e-07 6.75858e-08 7.06509e-06 -9.10702e-10 -4.79859e-08 9.04254e-10)
(-1.57535e-07 6.66964e-08 7.49513e-06 -1.1844e-09 -6.72573e-08 1.1731e-09)
(-1.57367e-07 5.77384e-08 7.86273e-06 -1.22989e-09 -8.49897e-08 1.21313e-09)
(-1.59837e-07 4.72026e-08 8.15171e-06 -1.13987e-09 -1.00521e-07 1.1174e-09)
(-1.6307e-07 3.77152e-08 8.37114e-06 -9.9528e-10 -1.13797e-07 9.67174e-10)
(-1.65919e-07 2.94443e-08 8.53384e-06 -8.27302e-10 -1.2505e-07 7.93882e-10)
(-1.68004e-07 2.1894e-08 8.64937e-06 -6.4048e-10 -1.34542e-07 6.02199e-10)
(-1.69366e-07 1.47679e-08 8.72431e-06 -4.3718e-10 -1.42477e-07 3.94546e-10)
(-1.70153e-07 8.07979e-09 8.76413e-06 -2.25568e-10 -1.49015e-07 1.79099e-10)
(-1.70447e-07 1.96056e-09 8.77427e-06 -1.62462e-11 -1.54291e-07 -3.35275e-11)
(-1.70247e-07 -3.52394e-09 8.75997e-06 1.83133e-10 -1.58417e-07 -2.3566e-10)
(-1.69463e-07 -8.43874e-09 8.72594e-06 3.70385e-10 -1.61487e-07 -4.25069e-10)
(-1.67971e-07 -1.29459e-08 8.67583e-06 5.47841e-10 -1.63565e-07 -6.0403e-10)
(-1.65579e-07 -1.72456e-08 8.61219e-06 7.20129e-10 -1.64691e-07 -7.77096e-10)
(-1.62067e-07 -2.1528e-08 8.53659e-06 8.92139e-10 -1.64892e-07 -9.49079e-10)
(-1.5725e-07 -2.58756e-08 8.44978e-06 1.06497e-09 -1.64189e-07 -1.12102e-09)
(-1.50935e-07 -3.02469e-08 8.35234e-06 1.23496e-09 -1.62609e-07 -1.28923e-09)
(-1.42952e-07 -3.45674e-08 8.24493e-06 1.39719e-09 -1.60189e-07 -1.44879e-09)
(-1.33142e-07 -3.88545e-08 8.12826e-06 1.55042e-09 -1.56974e-07 -1.59848e-09)
(-1.21367e-07 -4.33541e-08 8.00268e-06 1.7023e-09 -1.53012e-07 -1.74602e-09)
(-1.07557e-07 -4.86343e-08 7.86797e-06 1.8722e-09 -1.48342e-07 -1.91091e-09)
(-9.1748e-08 -5.56044e-08 7.72741e-06 2.08996e-09 -1.4303e-07 -2.12311e-09)
(-7.38825e-08 -6.53068e-08 7.57322e-06 2.3865e-09 -1.36962e-07 -2.4137e-09)
(-5.41432e-08 -7.88186e-08 7.3989e-06 2.78918e-09 -1.30113e-07 -2.81027e-09)
(-3.2886e-08 -9.70734e-08 7.19704e-06 3.31375e-09 -1.22465e-07 -3.32879e-09)
(-1.07315e-08 -1.20637e-07 6.95938e-06 3.95662e-09 -1.14008e-07 -3.96598e-09)
(1.14857e-08 -1.495e-07 6.67786e-06 4.68869e-09 -1.04728e-07 -4.693e-09)
(3.27037e-08 -1.82986e-07 6.34565e-06 5.45279e-09 -9.45949e-08 -5.4529e-09)
(5.19826e-08 -2.20039e-07 5.95855e-06 6.17721e-09 -8.36634e-08 -6.17422e-09)
(6.93525e-08 -2.60142e-07 5.51589e-06 6.84654e-09 -7.25519e-08 -6.84146e-09)
(8.31714e-08 -3.02041e-07 5.01783e-06 7.47371e-09 -6.19627e-08 -7.46739e-09)
(9.2182e-08 -3.42794e-07 4.46888e-06 8.02121e-09 -5.20608e-08 -8.01433e-09)
(9.54536e-08 -3.78361e-07 3.87847e-06 8.44862e-09 -4.29528e-08 -8.44168e-09)
(9.22657e-08 -4.03599e-07 3.26116e-06 8.71096e-09 -3.46994e-08 -8.70434e-09)
(8.25161e-08 -4.1256e-07 2.63708e-06 8.72803e-09 -2.72435e-08 -8.72203e-09)
(6.71945e-08 -3.99762e-07 2.03183e-06 8.35582e-09 -2.04333e-08 -8.35081e-09)
(4.85522e-08 -3.6248e-07 1.47466e-06 7.40693e-09 -1.41684e-08 -7.40329e-09)
(2.96646e-08 -3.03163e-07 9.94281e-07 5.78002e-09 -8.60276e-09 -5.77799e-09)
(1.33086e-08 -2.30354e-07 6.125e-07 3.68647e-09 -4.20946e-09 -3.6858e-09)
(3.35202e-09 -1.56632e-07 3.37574e-07 1.72644e-09 -1.46007e-09 -1.72636e-09)
(-2.11643e-10 -9.16623e-08 1.58293e-07 5.14436e-10 -2.95245e-10 -5.14437e-10)
(-4.85482e-10 -4.00294e-08 5.39094e-08 6.98354e-11 -2.1097e-11 -6.98357e-11)
(-1.08293e-10 -8.50125e-09 8.50125e-09 4.77598e-17 1.43836e-23 -4.77598e-17)
(-3.62324e-12 -3.73275e-10 2.54032e-10 -7.66136e-14 -3.02182e-14 7.66136e-14)
(-9.32951e-15 -1.48567e-12 5.75643e-13 2.0952e-16 2.29784e-16 -2.0952e-16)
(-5.905e-19 -1.94089e-16 2.37699e-17 3.19123e-20 1.28335e-19 -3.19124e-20)
(-1.38871e-06 1.44652e-07 3.37608e-05 -2.07535e-10 -2.43021e-08 2.0689e-10)
(-1.31833e-06 3.72702e-07 3.4617e-05 -1.71171e-09 -7.98093e-08 1.70545e-09)
(-1.20726e-06 4.69343e-07 3.5892e-05 -3.87083e-09 -1.48775e-07 3.85229e-09)
(-1.10434e-06 4.54859e-07 3.71737e-05 -5.49225e-09 -2.26065e-07 5.45557e-09)
(-1.02932e-06 3.87798e-07 3.82533e-05 -6.05643e-09 -3.01842e-07 5.99843e-09)
(-9.80127e-07 3.12674e-07 3.90906e-05 -5.82417e-09 -3.69523e-07 5.74435e-09)
(-9.47365e-07 2.46309e-07 3.97174e-05 -5.18838e-09 -4.27133e-07 5.08793e-09)
(-9.23769e-07 1.89283e-07 4.01755e-05 -4.34901e-09 -4.7525e-07 4.22992e-09)
(-9.05817e-07 1.38056e-07 4.04967e-05 -3.36557e-09 -5.15109e-07 3.23001e-09)
(-8.92374e-07 9.04316e-08 4.07033e-05 -2.27228e-09 -5.47743e-07 2.12236e-09)
(-8.82946e-07 4.62049e-08 4.08131e-05 -1.12476e-09 -5.73848e-07 9.62504e-10)
(-8.76688e-07 5.93878e-09 4.08425e-05 1.26547e-11 -5.93887e-07 -1.85171e-10)
(-8.72319e-07 -3.01617e-08 4.08064e-05 1.09288e-09 -6.08203e-07 -1.27337e-09)
(-8.68222e-07 -6.26621e-08 4.07182e-05 2.09866e-09 -6.17071e-07 -2.28455e-09)
(-8.62795e-07 -9.27044e-08 4.05881e-05 3.03735e-09 -6.2073e-07 -3.22576e-09)
(-8.54344e-07 -1.2166e-07 4.04237e-05 3.92912e-09 -6.19427e-07 -4.11692e-09)
(-8.41272e-07 -1.50844e-07 4.02295e-05 4.79626e-09 -6.13473e-07 -4.9802e-09)
(-8.22432e-07 -1.80923e-07 4.00072e-05 5.64332e-09 -6.03259e-07 -5.82031e-09)
(-7.96746e-07 -2.1181e-07 3.97572e-05 6.45356e-09 -5.89228e-07 -6.62079e-09)
(-7.63241e-07 -2.4323e-07 3.94783e-05 7.20696e-09 -5.71853e-07 -7.36202e-09)
(-7.20967e-07 -2.75517e-07 3.91687e-05 7.90326e-09 -5.51586e-07 -8.04424e-09)
(-6.68811e-07 -3.10537e-07 3.8825e-05 8.58472e-09 -5.28859e-07 -8.71023e-09)
(-6.05377e-07 -3.52297e-07 3.84454e-05 9.34268e-09 -5.0405e-07 -9.45177e-09)
(-5.29925e-07 -4.06883e-07 3.80374e-05 1.0299e-08 -4.7744e-07 -1.03912e-08)
(-4.43017e-07 -4.81623e-07 3.75735e-05 1.15739e-08 -4.48923e-07 -1.16494e-08)
(-3.45881e-07 -5.8457e-07 3.70324e-05 1.32661e-08 -4.18697e-07 -1.33258e-08)
(-2.40368e-07 -7.23309e-07 3.639e-05 1.54167e-08 -3.86972e-07 -1.54619e-08)
(-1.29609e-07 -9.03801e-07 3.56185e-05 1.79861e-08 -3.53931e-07 -1.80186e-08)
(-1.7473e-08 -1.12934e-06 3.4688e-05 2.0829e-08 -3.19523e-07 -2.08511e-08)
(9.05989e-08 -1.40012e-06 3.35677e-05 2.36379e-08 -2.82942e-07 -2.36518e-08)
(1.90422e-07 -1.71455e-06 3.22281e-05 2.58544e-08 -2.42405e-07 -2.58624e-08)
(3.07107e-07 -2.07245e-06 3.06354e-05 2.75138e-08 -2.02528e-07 -2.75169e-08)
(4.05723e-07 -2.47079e-06 2.8787e-05 2.94328e-08 -1.70282e-07 -2.94331e-08)
(4.77074e-07 -2.89814e-06 2.66832e-05 3.1953e-08 -1.45429e-07 -3.19517e-08)
(5.18156e-07 -3.33525e-06 2.43328e-05 3.56757e-08 -1.2775e-07 -3.56734e-08)
(5.28357e-07 -3.752e-06 2.17545e-05 4.14961e-08 -1.16771e-07 -4.14925e-08)
(5.1098e-07 -4.10339e-06 1.8977e-05 5.00637e-08 -1.10402e-07 -5.00578e-08)
(4.7229e-07 -4.32803e-06 1.60395e-05 6.06767e-08 -1.04297e-07 -6.0667e-08)
(4.16996e-07 -4.3519e-06 1.29947e-05 6.98271e-08 -9.26108e-08 -6.98124e-08)
(3.41506e-07 -4.09868e-06 9.91473e-06 7.05291e-08 -7.07725e-08 -7.05117e-08)
(2.17651e-07 -3.50752e-06 6.90144e-06 5.55888e-08 -4.05867e-08 -5.55778e-08)
(8.97324e-08 -2.58299e-06 4.12801e-06 2.77417e-08 -1.34931e-08 -2.77394e-08)
(1.65404e-08 -1.45054e-06 1.85958e-06 6.25954e-09 -1.57119e-09 -6.25946e-09)
(-1.3989e-09 -4.69234e-07 4.69234e-07 4.93895e-16 1.22087e-22 -4.93895e-16)
(-4.85482e-10 -5.39093e-08 4.00294e-08 -6.98353e-11 -2.10969e-11 6.98349e-11)
(-1.27959e-11 -1.35207e-09 6.83964e-10 -9.96335e-13 -7.32764e-13 9.96329e-13)
(-3.4817e-14 -4.815e-12 1.39123e-12 5.96123e-16 9.45465e-16 -5.96124e-16)
(-2.56926e-18 -6.59914e-16 6.06387e-17 1.78236e-19 9.61708e-19 -1.7824e-19)
(-1.24371e-06 3.88633e-07 6.93501e-05 -9.23138e-11 -8.23783e-09 9.23118e-11)
(-9.91009e-07 9.92469e-07 7.02177e-05 -1.35269e-09 -4.78585e-08 1.35259e-09)
(-6.16193e-07 1.23444e-06 7.15289e-05 -4.61032e-09 -1.33594e-07 4.61014e-09)
(-2.4879e-07 1.18166e-06 7.28735e-05 -8.19103e-09 -2.52599e-07 8.19315e-09)
(4.69569e-08 9.9475e-07 7.40291e-05 -1.01985e-08 -3.7937e-07 1.02085e-08)
(2.66055e-07 7.89728e-07 7.49353e-05 -1.04622e-08 -4.95758e-07 1.0486e-08)
(4.27123e-07 6.09394e-07 7.56133e-05 -9.6151e-09 -5.94839e-07 9.65636e-09)
(5.47803e-07 4.55174e-07 7.61047e-05 -8.13257e-09 -6.7624e-07 8.19267e-09)
(6.39008e-07 3.18018e-07 7.6447e-05 -6.23192e-09 -7.41787e-07 6.31028e-09)
(7.06465e-07 1.92014e-07 7.66688e-05 -4.04877e-09 -7.93208e-07 4.14338e-09)
(7.54151e-07 7.60611e-08 7.67931e-05 -1.73575e-09 -8.31581e-07 1.8435e-09)
(7.86445e-07 -2.9029e-08 7.68392e-05 5.49951e-10 -8.57472e-07 -4.32765e-10)
(8.0837e-07 -1.23205e-07 7.6825e-05 2.6904e-09 -8.71214e-07 -2.56766e-09)
(8.25333e-07 -2.0818e-07 7.67659e-05 4.62873e-09 -8.73097e-07 -4.50412e-09)
(8.42161e-07 -2.87002e-07 7.66756e-05 6.35756e-09 -8.63501e-07 -6.23435e-09)
(8.63294e-07 -3.63272e-07 7.65645e-05 7.89524e-09 -8.43026e-07 -7.77613e-09)
(8.92283e-07 -4.40504e-07 7.64396e-05 9.26577e-09 -8.12659e-07 -9.15287e-09)
(9.30883e-07 -5.20806e-07 7.63026e-05 1.04665e-08 -7.7369e-07 -1.03614e-08)
(9.80302e-07 -6.04696e-07 7.61495e-05 1.14652e-08 -7.27499e-07 -1.13691e-08)
(1.0415e-06 -6.92477e-07 7.59709e-05 1.22305e-08 -6.75358e-07 -1.21442e-08)
(1.11585e-06 -7.86168e-07 7.57528e-05 1.27582e-08 -6.18188e-07 -1.26823e-08)
(1.20592e-06 -8.91716e-07 7.54794e-05 1.30847e-08 -5.56476e-07 -1.30194e-08)
(1.31632e-06 -1.02029e-06 7.51468e-05 1.32673e-08 -4.9056e-07 -1.32127e-08)
(1.45126e-06 -1.18785e-06 7.47487e-05 1.33312e-08 -4.20794e-07 -1.32874e-08)
(1.61047e-06 -1.41418e-06 7.42491e-05 1.31977e-08 -3.47262e-07 -1.31648e-08)
(1.79258e-06 -1.72146e-06 7.36217e-05 1.26125e-08 -2.70069e-07 -1.25901e-08)
(1.99545e-06 -2.13151e-06 7.28393e-05 1.10924e-08 -1.89598e-07 -1.10797e-08)
(2.21436e-06 -2.66359e-06 7.18707e-05 7.89304e-09 -1.06407e-07 -7.8881e-09)
(2.44473e-06 -3.33271e-06 7.06819e-05 1.96082e-09 -2.07491e-08 -1.96043e-09)
(2.6782e-06 -4.14985e-06 6.92356e-05 -8.3778e-09 6.96131e-08 8.37901e-09)
(2.89121e-06 -5.12841e-06 6.75004e-05 -2.74145e-08 1.79236e-07 2.74272e-08)
(3.05162e-06 -6.27879e-06 6.54447e-05 -5.50726e-08 2.84061e-07 5.51109e-08)
(3.17489e-06 -7.60634e-06 6.30456e-05 -8.71118e-08 3.55314e-07 8.7181e-08)
(3.26142e-06 -9.11453e-06 6.03055e-05 -1.23322e-07 3.98133e-07 1.23423e-07)
(3.30647e-06 -1.07965e-05 5.72358e-05 -1.6019e-07 4.08973e-07 1.60315e-07)
(3.30102e-06 -1.26284e-05 5.38436e-05 -1.89284e-07 3.80871e-07 1.89414e-07)
(3.22614e-06 -1.45512e-05 5.01023e-05 -1.96749e-07 3.09835e-07 1.96857e-07)
(3.04963e-06 -1.64357e-05 4.59063e-05 -1.65048e-07 2.00803e-07 1.65108e-07)
(2.73993e-06 -1.80196e-05 4.10132e-05 -8.1318e-08 7.46519e-08 8.13311e-08)
(2.31459e-06 -1.87962e-05 3.49898e-05 3.904e-08 -2.58553e-08 -3.90388e-08)
(1.58825e-06 -1.78196e-05 2.71767e-05 1.20138e-07 -5.22571e-08 -1.20122e-07)
(7.63778e-07 -1.3882e-05 1.72718e-05 6.95547e-08 -1.53278e-08 -6.95498e-08)
(1.92183e-07 -7.30097e-06 7.30097e-06 -4.32931e-14 -1.25103e-20 4.32931e-14)
(1.65404e-08 -1.85958e-06 1.45053e-06 -6.25946e-09 -1.57119e-09 6.25954e-09)
(-2.11645e-10 -1.58293e-07 9.16621e-08 -5.14436e-10 -2.95245e-10 5.14434e-10)
(-2.01679e-11 -3.47318e-09 1.37201e-09 -5.08267e-12 -5.42915e-12 5.08261e-12)
(-7.41122e-14 -1.26866e-11 2.87163e-12 2.04917e-16 4.29462e-16 -2.04917e-16)
(-6.44873e-18 -1.77865e-15 1.28658e-16 6.00979e-19 4.13286e-18 -6.01004e-19)
(-4.18537e-07 6.41635e-07 8.94517e-05 3.55635e-10 2.47864e-08 -3.55714e-10)
(-2.06693e-07 1.62659e-06 8.94411e-05 1.46565e-09 4.02813e-08 -1.46598e-09)
(7.86585e-08 2.00335e-06 8.9436e-05 -5.60172e-10 -1.24976e-08 5.60341e-10)
(3.49939e-07 1.90151e-06 8.94401e-05 -4.95521e-09 -1.16471e-07 4.95795e-09)
(5.61048e-07 1.59051e-06 8.94472e-05 -8.45784e-09 -2.37639e-07 8.46692e-09)
(7.14999e-07 1.25556e-06 8.9453e-05 -9.87848e-09 -3.51435e-07 9.89773e-09)
(8.31428e-07 9.6301e-07 8.94567e-05 -9.66121e-09 -4.47709e-07 9.69289e-09)
(9.25962e-07 7.14735e-07 8.9459e-05 -8.41648e-09 -5.24692e-07 8.46112e-09)
(1.00714e-06 4.9641e-07 8.94603e-05 -6.52081e-09 -5.83691e-07 6.5776e-09)
(1.07861e-06 2.98102e-07 8.9461e-05 -4.22565e-09 -6.26128e-07 4.29273e-09)
(1.14266e-06 1.1693e-07 8.94614e-05 -1.76717e-09 -6.52742e-07 1.84189e-09)
(1.20238e-06 -4.69899e-08 8.94614e-05 6.31027e-10 -6.63682e-07 -5.51875e-10)
(1.26179e-06 -1.94358e-07 8.94613e-05 2.79447e-09 -6.58883e-07 -2.71443e-09)
(1.32546e-06 -3.28154e-07 8.9461e-05 4.61567e-09 -6.38351e-07 -4.53834e-09)
(1.39723e-06 -4.53108e-07 8.94606e-05 6.03886e-09 -6.02388e-07 -5.96763e-09)
(1.48056e-06 -5.74691e-07 8.946e-05 7.03326e-09 -5.51783e-07 -6.97104e-09)
(1.57826e-06 -6.98347e-07 8.94593e-05 7.57307e-09 -4.88041e-07 -7.52201e-09)
(1.69151e-06 -8.27916e-07 8.94582e-05 7.61095e-09 -4.13104e-07 -7.57223e-09)
(1.82219e-06 -9.656e-07 8.94567e-05 7.07489e-09 -3.28825e-07 -7.04858e-09)
(1.97363e-06 -1.11401e-06 8.94547e-05 5.87771e-09 -2.36507e-07 -5.86277e-09)
(2.15152e-06 -1.27882e-06 8.9452e-05 3.89797e-09 -1.36477e-07 -3.89214e-09)
(2.36405e-06 -1.47149e-06 8.9448e-05 9.21156e-10 -2.79969e-08 -9.20667e-10)
(2.621e-06 -1.71118e-06 8.94422e-05 -3.45516e-09 9.01968e-08 3.45643e-09)
(2.93377e-06 -2.02428e-06 8.94333e-05 -9.93713e-09 2.19011e-07 9.94909e-09)
(3.31528e-06 -2.44385e-06 8.94192e-05 -1.97217e-08 3.59548e-07 1.97603e-08)
(3.77559e-06 -3.00784e-06 8.93968e-05 -3.47016e-08 5.13244e-07 3.47925e-08)
(4.32544e-06 -3.75639e-06 8.93609e-05 -5.76042e-08 6.80951e-07 5.7788e-08)
(4.9733e-06 -4.73009e-06 8.93039e-05 -9.21262e-08 8.62789e-07 9.24649e-08)
(5.72975e-06 -5.96913e-06 8.92147e-05 -1.43013e-07 1.0578e-06 1.43599e-07)
(6.59733e-06 -7.51396e-06 8.90773e-05 -2.15901e-07 1.26251e-06 2.16865e-07)
(7.53769e-06 -9.41119e-06 8.88709e-05 -3.18198e-07 1.4752e-06 3.19715e-07)
(8.10227e-06 -1.15353e-05 8.71076e-05 -4.49194e-07 1.65428e-06 4.51349e-07)
(8.61383e-06 -1.40116e-05 8.49816e-05 -6.15561e-07 1.8026e-06 6.18477e-07)
(9.1308e-06 -1.69049e-05 8.27572e-05 -8.16882e-07 1.9017e-06 8.20642e-07)
(9.61505e-06 -2.02761e-05 8.05064e-05 -1.04128e-06 1.92142e-06 1.04581e-06)
(9.99716e-06 -2.41902e-05 7.82581e-05 -1.2564e-06 1.82438e-06 1.26133e-06)
(1.01754e-05 -2.867e-05 7.5902e-05 -1.39989e-06 1.57738e-06 1.40449e-06)
(1.0023e-05 -3.35828e-05 7.30529e-05 -1.38013e-06 1.17638e-06 1.38352e-06)
(9.41068e-06 -3.84131e-05 6.88931e-05 -1.10766e-06 6.81004e-07 1.10934e-06)
(8.41717e-06 -4.19344e-05 6.21153e-05 -5.93424e-07 2.38396e-07 5.93821e-07)
(6.12936e-06 -4.17003e-05 5.09336e-05 -1.12697e-07 2.26675e-08 1.12709e-07)
(2.88461e-06 -3.3503e-05 3.3503e-05 -2.42201e-13 -6.71274e-20 2.42201e-13)
(7.63777e-07 -1.72718e-05 1.3882e-05 -6.955e-08 -1.53278e-08 6.95549e-08)
(8.97322e-08 -4.12801e-06 2.58299e-06 -2.77393e-08 -1.34932e-08 2.77417e-08)
(3.35201e-09 -3.37573e-07 1.56632e-07 -1.72635e-09 -1.46006e-09 1.72644e-09)
(1.69556e-11 -7.58782e-09 2.40481e-09 -1.64719e-11 -2.3377e-11 1.6472e-11)
(-3.63466e-14 -2.88717e-11 5.2586e-12 -5.34826e-15 -1.41949e-14 5.34826e-15)
(-7.08446e-18 -4.08408e-15 2.38632e-16 1.34656e-18 1.14844e-17 -1.3466e-18)
(-3.20674e-06 7.8898e-07 8.94356e-05 9.38248e-10 5.31097e-08 -9.39008e-10)
(-3.0078e-06 2.01301e-06 8.94198e-05 5.55483e-09 1.23186e-07 -5.55866e-09)
(-2.71521e-06 2.50681e-06 8.94122e-05 6.67182e-09 1.18805e-07 -6.67502e-09)
(-2.419e-06 2.41095e-06 8.94193e-05 2.9765e-09 5.51403e-08 -2.9771e-09)
(-2.16835e-06 2.04222e-06 8.94317e-05 -1.51552e-09 -3.31726e-08 1.51528e-09)
(-1.96744e-06 1.62799e-06 8.94425e-05 -4.35122e-09 -1.19586e-07 4.34864e-09)
(-1.80163e-06 1.25647e-06 8.94501e-05 -5.39042e-09 -1.92135e-07 5.38431e-09)
(-1.6577e-06 9.36039e-07 8.94552e-05 -5.1684e-09 -2.47546e-07 5.15899e-09)
(-1.52783e-06 6.52446e-07 8.94586e-05 -4.15568e-09 -2.85954e-07 4.14399e-09)
(-1.4083e-06 3.9456e-07 8.94609e-05 -2.69877e-09 -3.07839e-07 2.68614e-09)
(-1.29629e-06 1.58717e-07 8.94623e-05 -1.09532e-09 -3.13171e-07 1.08315e-09)
(-1.18777e-06 -5.54631e-08 8.94631e-05 3.87328e-10 -3.01503e-07 -3.97781e-10)
(-1.07767e-06 -2.49313e-07 8.94634e-05 1.52818e-09 -2.72391e-07 -1.53603e-09)
(-9.60463e-07 -4.2679e-07 8.94633e-05 2.15973e-09 -2.25715e-07 -2.16463e-09)
(-8.31952e-07 -5.93861e-07 8.94629e-05 2.1518e-09 -1.61868e-07 -2.15405e-09)
(-6.88579e-07 -7.57371e-07 8.94622e-05 1.38699e-09 -8.18772e-08 -1.38751e-09)
(-5.2744e-07 -9.24323e-07 8.9461e-05 -2.58158e-10 1.24921e-08 2.58156e-10)
(-3.47019e-07 -1.10039e-06 8.94592e-05 -2.93556e-09 1.19334e-07 2.93505e-09)
(-1.43771e-07 -1.29015e-06 8.94567e-05 -6.84878e-09 2.37427e-07 6.84759e-09)
(8.88746e-08 -1.49948e-06 8.94531e-05 -1.23003e-08 3.66744e-07 1.23e-08)
(3.61192e-07 -1.73826e-06 8.94481e-05 -1.97897e-08 5.0868e-07 1.9795e-08)
(6.871e-07 -2.02329e-06 8.94408e-05 -3.01734e-08 6.65732e-07 3.01948e-08)
(1.08297e-06 -2.38012e-06 8.94298e-05 -4.48824e-08 8.40796e-07 4.49403e-08)
(1.56587e-06 -2.84204e-06 8.94126e-05 -6.61522e-08 1.03622e-06 6.62844e-08)
(2.15718e-06 -3.44919e-06 8.93852e-05 -9.7327e-08 1.25369e-06 9.76001e-08)
(2.87414e-06 -4.24627e-06 8.93415e-05 -1.43141e-07 1.4939e-06 1.43667e-07)
(3.73462e-06 -5.27972e-06 8.92721e-05 -2.09869e-07 1.75566e-06 2.10826e-07)
(4.74942e-06 -6.59563e-06 8.91632e-05 -3.05274e-07 2.03498e-06 3.06935e-07)
(5.92529e-06 -8.23864e-06 8.89959e-05 -4.38126e-07 2.32338e-06 4.40877e-07)
(7.24578e-06 -1.0252e-05 8.87443e-05 -6.16351e-07 2.60329e-06 6.20676e-07)
(8.67486e-06 -1.26766e-05 8.83761e-05 -8.40766e-07 2.83609e-06 8.47127e-07)
(1.01084e-05 -1.55704e-05 8.78481e-05 -1.12192e-06 3.02619e-06 1.13078e-06)
(1.14807e-05 -1.89838e-05 8.7101e-05 -1.47119e-06 3.17095e-06 1.48304e-06)
(1.26741e-05 -2.29471e-05 8.60647e-05 -1.8644e-06 3.20163e-06 1.87911e-06)
(1.35175e-05 -2.74819e-05 8.46576e-05 -2.24914e-06 3.05458e-06 2.26561e-06)
(1.38582e-05 -3.25848e-05 8.27868e-05 -2.53794e-06 2.6862e-06 2.55395e-06)
(1.36551e-05 -3.82078e-05 8.03506e-05 -2.61608e-06 2.10061e-06 2.62906e-06)
(1.30379e-05 -4.42436e-05 7.72436e-05 -2.37694e-06 1.37738e-06 2.38523e-06)
(1.2245e-05 -5.05229e-05 7.33639e-05 -1.76942e-06 6.68228e-07 1.77309e-06)
(1.20692e-05 -5.6838e-05 6.86526e-05 -8.15745e-07 1.53621e-07 8.16437e-07)
(1.17591e-05 -6.28786e-05 6.28786e-05 3.36988e-13 9.14796e-20 -3.36988e-13)
(6.12935e-06 -5.09336e-05 4.17003e-05 1.12708e-07 2.26675e-08 -1.12696e-07)
(1.58825e-06 -2.71767e-05 1.78196e-05 -1.20123e-07 -5.22573e-08 1.20138e-07)
(2.17651e-07 -6.90143e-06 3.50752e-06 -5.55778e-08 -4.05867e-08 5.55887e-08)
(1.33085e-08 -6.12499e-07 2.30354e-07 -3.68579e-09 -4.20945e-09 3.68646e-09)