/*--------------------------------*- C++ -*----------------------------------*\
| =========                 |                                                 |
| \\      /  F ield         | OpenFOAM: The Open Source CFD Toolbox           |
|  \\    /   O peration     | Version:  2506                                  |
|   \\  /    A nd           | Website:  www.openfoam.com                      |
|    \\/     M anipulation  |                                                 |
\*---------------------------------------------------------------------------*/
FoamFile
{
    version     2.0;
    format      ascii;
    arch        "LSB;label=32;scalar=64";
    class       volSymmTensorField;
    location    "2137";
    object      Tij2;
}
// * * * * * * * * * * * * * * * * * * * * * * * * * * * * * * * * * * * * * //

dimensions      [0 0 0 0 0 0 0];

internalField   nonuniform List<symmTensor> 
2304
(
(-1.62016e-05 6.12505e-08 -8.29927e-09 -2.28883e-10 6.61606e-09 1.62019e-05)
(-1.66311e-05 1.71737e-07 -6.68981e-09 -1.75637e-09 1.69038e-08 1.66329e-05)
(-1.7267e-05 2.55852e-07 -4.50777e-09 -3.76571e-09 2.09896e-08 1.72708e-05)
(-1.78991e-05 3.14707e-07 -2.63144e-09 -5.51105e-09 1.99866e-08 1.79047e-05)
(-1.84235e-05 3.55645e-07 -1.43156e-09 -6.85023e-09 1.67133e-08 1.84304e-05)
(-1.88252e-05 3.86328e-07 -7.76206e-10 -7.91891e-09 1.32199e-08 1.88331e-05)
(-1.91245e-05 4.11335e-07 -4.33628e-10 -8.84167e-09 1.02249e-08 1.91333e-05)
(-1.93437e-05 4.329e-07 -2.3852e-10 -9.68495e-09 7.7038e-09 1.93534e-05)
(-1.9498e-05 4.51964e-07 -1.26982e-10 -1.0475e-08 5.46125e-09 1.95085e-05)
(-1.95968e-05 4.69122e-07 -8.64805e-11 -1.12296e-08 3.38152e-09 1.9608e-05)
(-1.96476e-05 4.84921e-07 -1.20998e-10 -1.19682e-08 1.45089e-09 1.96596e-05)
(-1.96578e-05 4.99885e-07 -2.25081e-10 -1.27118e-08 -3.03539e-10 1.96705e-05)
(-1.96345e-05 5.14426e-07 -3.85391e-10 -1.34778e-08 -1.86841e-09 1.96479e-05)
(-1.95842e-05 5.28786e-07 -5.79302e-10 -1.4277e-08 -3.26408e-09 1.95984e-05)
(-1.9512e-05 5.43014e-07 -7.83955e-10 -1.51109e-08 -4.53624e-09 1.95271e-05)
(-1.94215e-05 5.5699e-07 -9.72399e-10 -1.59722e-08 -5.73994e-09 1.94375e-05)
(-1.93153e-05 5.70406e-07 -1.11649e-09 -1.68423e-08 -6.92741e-09 1.93322e-05)
(-1.91948e-05 5.82843e-07 -1.1961e-09 -1.76944e-08 -8.12108e-09 1.92125e-05)
(-1.90613e-05 5.93833e-07 -1.1901e-09 -1.84956e-08 -9.30943e-09 1.90798e-05)
(-1.89166e-05 6.02872e-07 -1.07875e-09 -1.92077e-08 -1.04735e-08 1.89358e-05)
(-1.87625e-05 6.09439e-07 -8.39513e-10 -1.97884e-08 -1.16239e-08 1.87823e-05)
(-1.86001e-05 6.12977e-07 -4.47284e-10 -2.01921e-08 -1.28432e-08 1.86203e-05)
(-1.8429e-05 6.12882e-07 1.17589e-10 -2.03712e-08 -1.43114e-08 1.84493e-05)
(-1.8246e-05 6.08553e-07 8.64149e-10 -2.02824e-08 -1.631e-08 1.82663e-05)
(-1.80447e-05 5.99346e-07 1.81726e-09 -1.98868e-08 -1.91941e-08 1.80645e-05)
(-1.78153e-05 5.84619e-07 2.97057e-09 -1.91543e-08 -2.33446e-08 1.78345e-05)
(-1.75456e-05 5.63864e-07 4.29783e-09 -1.80731e-08 -2.91267e-08 1.75637e-05)
(-1.72215e-05 5.36821e-07 5.73791e-09 -1.66556e-08 -3.68286e-08 1.72382e-05)
(-1.68288e-05 5.03582e-07 7.21565e-09 -1.49413e-08 -4.66028e-08 1.68438e-05)
(-1.63548e-05 4.64595e-07 8.67667e-09 -1.29908e-08 -5.84621e-08 1.63678e-05)
(-1.57893e-05 4.20549e-07 1.01667e-08 -1.08718e-08 -7.24271e-08 1.58001e-05)
(-1.51233e-05 3.71401e-07 1.19893e-08 -8.60249e-09 -8.8865e-08 1.51319e-05)
(-1.43448e-05 3.17296e-07 1.37888e-08 -6.20952e-09 -1.08043e-07 1.4351e-05)
(-1.34443e-05 2.59675e-07 1.52954e-08 -3.77038e-09 -1.297e-07 1.34481e-05)
(-1.24176e-05 2.00662e-07 1.62522e-08 -1.36025e-09 -1.53157e-07 1.2419e-05)
(-1.12681e-05 1.43071e-07 1.63416e-08 9.62529e-10 -1.7716e-07 1.12671e-05)
(-1.00098e-05 9.03656e-08 1.52247e-08 3.16312e-09 -1.99675e-07 1.00066e-05)
(-8.67128e-06 4.62997e-08 1.26941e-08 5.23037e-09 -2.17942e-07 8.66605e-06)
(-7.29654e-06 1.40769e-08 8.89774e-09 7.16435e-09 -2.28975e-07 7.28938e-06)
(-5.94126e-06 -4.82151e-09 4.49988e-09 8.95127e-09 -2.30485e-07 5.93231e-06)
(-4.6639e-06 -1.15234e-08 5.89296e-10 1.05495e-08 -2.21861e-07 4.65335e-06)
(-3.51367e-06 -1.01497e-08 -1.60883e-09 1.1924e-08 -2.04596e-07 3.50175e-06)
(-2.52068e-06 -5.97114e-09 -1.95505e-09 1.31035e-08 -1.8137e-07 2.50758e-06)
(-1.6965e-06 -2.49068e-09 -1.32969e-09 1.41995e-08 -1.54579e-07 1.6823e-06)
(-1.04117e-06 -6.76035e-10 -6.10736e-10 1.53847e-08 -1.25626e-07 1.02579e-06)
(-5.50024e-07 -7.52972e-11 -1.76435e-10 1.69182e-08 -9.49694e-08 5.33106e-07)
(-2.18793e-07 1.15254e-11 -2.3052e-11 1.93695e-08 -6.21509e-08 1.99423e-07)
(-4.92545e-08 1.18442e-12 -1.18426e-12 2.46273e-08 -2.46273e-08 2.46273e-08)
(-0.000554193 1.69926e-06 -1.76894e-07 -4.34441e-09 6.93222e-07 0.000554197)
(-0.000568851 4.80802e-06 -4.17542e-08 -3.51232e-08 1.77153e-06 0.000568887)
(-0.000590541 7.27609e-06 1.43156e-07 -8.14412e-08 2.19991e-06 0.000590622)
(-0.000612078 9.11719e-06 3.07574e-07 -1.28609e-07 2.09417e-06 0.000612207)
(-0.000629928 1.04871e-05 4.20429e-07 -1.69693e-07 1.74969e-06 0.000630098)
(-0.000643596 1.15593e-05 4.88858e-07 -2.04606e-07 1.3818e-06 0.000643801)
(-0.00065378 1.24448e-05 5.30073e-07 -2.35117e-07 1.06608e-06 0.000654016)
(-0.000661245 1.32037e-05 5.56678e-07 -2.62657e-07 8.00048e-07 0.000661507)
(-0.000666501 1.38655e-05 5.74188e-07 -2.87955e-07 5.63271e-07 0.000666789)
(-0.000669872 1.44498e-05 5.84033e-07 -3.11508e-07 3.43615e-07 0.000670184)
(-0.000671612 1.49734e-05 5.86413e-07 -3.33794e-07 1.39637e-07 0.000671946)
(-0.00067197 1.54517e-05 5.82061e-07 -3.55306e-07 -4.58298e-08 0.000672325)
(-0.000671191 1.58967e-05 5.72349e-07 -3.76444e-07 -2.11411e-07 0.000671567)
(-0.000669494 1.63157e-05 5.59217e-07 -3.97437e-07 -3.59281e-07 0.000669892)
(-0.000667053 1.67109e-05 5.44644e-07 -4.1829e-07 -4.94283e-07 0.000667471)
(-0.000663993 1.70799e-05 5.30787e-07 -4.38788e-07 -6.22241e-07 0.000664432)
(-0.000660394 1.74158e-05 5.19734e-07 -4.5847e-07 -7.48661e-07 0.000660853)
(-0.000656305 1.7709e-05 5.12977e-07 -4.76709e-07 -8.75884e-07 0.000656782)
(-0.000651772 1.79487e-05 5.11952e-07 -4.92782e-07 -1.00261e-06 0.000652264)
(-0.000646849 1.81238e-05 5.18062e-07 -5.05894e-07 -1.12668e-06 0.000647355)
(-0.000641597 1.82229e-05 5.32963e-07 -5.152e-07 -1.24903e-06 0.000642112)
(-0.000636059 1.82338e-05 5.58587e-07 -5.19788e-07 -1.37809e-06 0.000636579)
(-0.000630224 1.81432e-05 5.96589e-07 -5.18672e-07 -1.53257e-06 0.000630742)
(-0.000623949 1.79356e-05 6.47979e-07 -5.10806e-07 -1.74206e-06 0.00062446)
(-0.000617036 1.75962e-05 7.14195e-07 -4.95164e-07 -2.04399e-06 0.000617531)
(-0.000609176 1.71109e-05 7.94558e-07 -4.70724e-07 -2.47846e-06 0.000609647)
(-0.000599957 1.64683e-05 8.86591e-07 -4.36442e-07 -3.08417e-06 0.000600394)
(-0.000588906 1.56625e-05 9.85364e-07 -3.91196e-07 -3.89198e-06 0.000589297)
(-0.000575541 1.46958e-05 1.08472e-06 -3.33699e-07 -4.91862e-06 0.000575874)
(-0.000559425 1.35795e-05 1.17965e-06 -2.62327e-07 -6.16577e-06 0.000559687)
(-0.000540213 1.23342e-05 1.27304e-06 -1.74549e-07 -7.63513e-06 0.000540387)
(-0.000517617 1.09688e-05 1.3798e-06 -6.40495e-08 -9.36536e-06 0.000517681)
(-0.000491228 9.49599e-06 1.47843e-06 7.91037e-08 -1.13863e-05 0.000491149)
(-0.000460732 7.95266e-06 1.54927e-06 2.67123e-07 -1.3672e-05 0.000460465)
(-0.000425986 6.38713e-06 1.57451e-06 5.15804e-07 -1.6154e-05 0.00042547)
(-0.000387084 4.85874e-06 1.53297e-06 8.42857e-07 -1.87031e-05 0.000386241)
(-0.000344463 3.43758e-06 1.40315e-06 1.26199e-06 -2.11063e-05 0.000343201)
(-0.000299028 2.19934e-06 1.17338e-06 1.77267e-06 -2.30683e-05 0.000297255)
(-0.000252204 1.21302e-06 8.56121e-07 2.34933e-06 -2.42623e-05 0.000249855)
(-0.000205855 5.22901e-07 4.97936e-07 2.9392e-06 -2.44283e-05 0.000202916)
(-0.000162017 1.34566e-07 1.74482e-07 3.47935e-06 -2.34866e-05 0.000158537)
(-0.000122477 -1.37282e-08 -2.81979e-08 3.93264e-06 -2.15913e-05 0.000118544)
(-8.84521e-05 -3.24475e-08 -9.34637e-08 4.31096e-06 -1.90455e-05 8.41412e-05)
(-6.03994e-05 -1.36207e-08 -7.67261e-08 4.65384e-06 -1.61069e-05 5.57456e-05)
(-3.81898e-05 7.83274e-10 -3.96664e-08 4.98498e-06 -1.28657e-05 3.32049e-05)
(-2.09117e-05 4.03581e-09 -1.28296e-08 5.0988e-06 -8.97924e-06 1.58129e-05)
(-6.49899e-06 1.44239e-09 -1.44234e-09 3.24949e-06 -3.24949e-06 3.24949e-06)
(-2.18793e-07 2.30531e-11 -1.15241e-11 1.99423e-07 -6.21508e-08 1.93695e-08)
(-0.00466883 1.07883e-05 -4.39635e-06 -3.36835e-09 1.00415e-05 0.00466883)
(-0.00477787 3.09048e-05 -3.1177e-06 -6.2701e-08 2.562e-05 0.00477793)
(-0.00493885 4.77896e-05 -1.37259e-06 -2.58421e-07 3.17526e-05 0.0049391)
(-0.00509861 6.14075e-05 1.07137e-07 -5.60771e-07 3.0193e-05 0.00509917)
(-0.00523135 7.2312e-05 1.04736e-06 -8.77722e-07 2.52326e-05 0.00523223)
(-0.00533338 8.12271e-05 1.55192e-06 -1.16226e-06 1.99543e-05 0.00533454)
(-0.00540963 8.8689e-05 1.81419e-06 -1.40986e-06 1.54293e-05 0.00541104)
(-0.0054656 9.50507e-05 1.9686e-06 -1.62817e-06 1.16178e-05 0.00546722)
(-0.00550505 0.000100527 2.07272e-06 -1.82332e-06 8.2277e-06 0.00550687)
(-0.00553045 0.000105273 2.13889e-06 -1.99912e-06 5.08567e-06 0.00553245)
(-0.00554375 0.000109411 2.1656e-06 -2.15845e-06 2.16966e-06 0.0055459)
(-0.00554682 0.000113048 2.15625e-06 -2.30395e-06 -4.82062e-07 0.00554912)
(-0.00554148 0.000116263 2.12155e-06 -2.43785e-06 -2.85209e-06 0.00554392)
(-0.00552933 0.000119109 2.07945e-06 -2.56136e-06 -4.97355e-06 0.00553189)
(-0.00551158 0.000121605 2.05002e-06 -2.67445e-06 -6.9176e-06 0.00551426)
(-0.00548912 0.000123747 2.05682e-06 -2.77589e-06 -8.76958e-06 0.00549189)
(-0.00546244 0.000125507 2.12348e-06 -2.86329e-06 -1.06103e-05 0.0054653)
(-0.00543182 0.000126846 2.26717e-06 -2.93374e-06 -1.24748e-05 0.00543476)
(-0.00539751 0.00012772 2.50329e-06 -2.9844e-06 -1.43446e-05 0.00540049)
(-0.00535981 0.000128088 2.84557e-06 -3.01257e-06 -1.61872e-05 0.00536282)
(-0.00531908 0.000127911 3.30935e-06 -3.01553e-06 -1.80121e-05 0.0053221)
(-0.00527558 0.00012715 3.91312e-06 -2.98994e-06 -1.99347e-05 0.00527857)
(-0.00522918 0.000125756 4.67295e-06 -2.93086e-06 -2.22182e-05 0.00523211)
(-0.0051803 0.000123691 5.60105e-06 -2.83123e-06 -2.52935e-05 0.00518313)
(-0.00512673 0.000120871 6.71624e-06 -2.67955e-06 -2.96969e-05 0.00512941)
(-0.00506586 0.000117229 8.01434e-06 -2.45952e-06 -3.60057e-05 0.00506832)
(-0.00499464 0.000112716 9.47292e-06 -2.14591e-06 -4.47885e-05 0.00499678)
(-0.00490947 0.000107303 1.10423e-05 -1.70026e-06 -5.65136e-05 0.00491117)
(-0.00480663 0.000100992 1.26542e-05 -1.06732e-06 -7.14628e-05 0.00480769)
(-0.00468257 9.38395e-05 1.42398e-05 -1.7255e-07 -8.97078e-05 0.00468274)
(-0.00453436 8.6013e-05 1.57997e-05 1.08728e-06 -0.000111307 0.00453328)
(-0.00435969 7.76399e-05 1.74744e-05 2.89757e-06 -0.000136853 0.0043568)
(-0.00415514 6.88411e-05 1.90351e-05 5.54385e-06 -0.000166844 0.0041496)
(-0.003918 5.98019e-05 2.02707e-05 9.39493e-06 -0.000201013 0.0039086)
(-0.00364662 5.06832e-05 2.09824e-05 1.49243e-05 -0.000238518 0.00363169)
(-0.00334082 4.16271e-05 2.09189e-05 2.26706e-05 -0.000277642 0.00331815)
(-0.00300265 3.278e-05 1.97982e-05 3.3087e-05 -0.000315359 0.00296956)
(-0.00263743 2.4333e-05 1.74035e-05 4.62642e-05 -0.000347239 0.00259117)
(-0.00225464 1.6578e-05 1.37406e-05 6.16055e-05 -0.000368035 0.00219303)
(-0.00186801 9.94866e-06 9.18923e-06 7.76851e-05 -0.000373115 0.00179032)
(-0.00149447 5.08525e-06 4.55377e-06 9.26183e-05 -0.000360376 0.00140186)
(-0.00115184 2.24258e-06 1.1397e-06 0.000105129 -0.000331727 0.00104671)
(-0.000850974 9.47061e-07 -4.49434e-07 0.000114874 -0.000290789 0.000736101)
(-0.000593226 4.63052e-07 -7.01464e-07 0.000120877 -0.000238947 0.000472349)
(-0.00036551 2.60028e-07 -4.14348e-07 0.0001157 -0.000170009 0.00024981)
(-0.000150954 1.06317e-07 -1.06315e-07 7.54772e-05 -7.54771e-05 7.54771e-05)
(-2.09117e-05 1.28298e-08 -4.0356e-09 1.58129e-05 -8.97923e-06 5.0988e-06)
(-5.50024e-07 1.76437e-10 7.53017e-11 5.33106e-07 -9.49693e-08 1.69181e-08)
(-0.0166953 2.55504e-05 -7.58772e-05 1.24506e-07 5.23648e-05 0.0166951)
(-0.0169829 7.50759e-05 -7.24499e-05 7.08209e-07 0.00013319 0.0169822)
(-0.0174045 0.000120849 -6.75462e-05 7.0629e-07 0.000164438 0.0174038)
(-0.0178203 0.000161932 -6.38428e-05 -1.1592e-07 0.000155984 0.0178204)
(-0.0181643 0.000197594 -6.20083e-05 -1.22408e-06 0.000130317 0.0181655)
(-0.0184279 0.000227941 -6.14976e-05 -2.25011e-06 0.000103196 0.0184301)
(-0.0186242 0.000253578 -6.15552e-05 -3.11619e-06 7.99967e-05 0.0186273)
(-0.0187677 0.000275268 -6.17016e-05 -3.84823e-06 6.04913e-05 0.0187715)
(-0.0188685 0.000293666 -6.17545e-05 -4.47605e-06 4.31989e-05 0.0188729)
(-0.0189333 0.000309281 -6.1703e-05 -5.01589e-06 2.72304e-05 0.0189383)
(-0.0189675 0.000322494 -6.15856e-05 -5.47636e-06 1.24489e-05 0.018973)
(-0.0189759 0.000333596 -6.14193e-05 -5.86436e-06 -9.82859e-07 0.0189818)
(-0.0189633 0.000342798 -6.11884e-05 -6.18623e-06 -1.30038e-05 0.0189695)
(-0.0189336 0.000350243 -6.08429e-05 -6.44616e-06 -2.38023e-05 0.01894)
(-0.0188898 0.000356013 -6.03171e-05 -6.64527e-06 -3.37554e-05 0.0188965)
(-0.0188341 0.000360149 -5.95227e-05 -6.78195e-06 -4.33129e-05 0.0188409)
(-0.0187677 0.000362663 -5.83619e-05 -6.85254e-06 -5.29034e-05 0.0187746)
(-0.0186911 0.000363564 -5.67533e-05 -6.85387e-06 -6.2727e-05 0.0186979)
(-0.0186045 0.000362876 -5.4616e-05 -6.78532e-06 -7.27128e-05 0.0186113)
(-0.0185085 0.000360641 -5.18729e-05 -6.64853e-06 -8.27146e-05 0.0185152)
(-0.0184034 0.00035692 -4.84433e-05 -6.44493e-06 -9.27904e-05 0.0184098)
(-0.0182892 0.000351782 -4.42388e-05 -6.17063e-06 -0.000103526 0.0182954)
(-0.0181656 0.000345269 -3.91797e-05 -5.80837e-06 -0.000116285 0.0181714)
(-0.0180353 0.000337421 -3.31985e-05 -5.31864e-06 -0.00013326 0.0180407)
(-0.0178908 0.000328107 -2.62101e-05 -4.62721e-06 -0.000157183 0.0178954)
(-0.0177253 0.000317296 -1.82009e-05 -3.6114e-06 -0.000191097 0.0177289)
(-0.0175307 0.000304952 -9.2135e-06 -2.06568e-06 -0.00023806 0.0175328)
(-0.0172975 0.000291029 6.1089e-07 3.35575e-07 -0.000300751 0.0172972)
(-0.0170151 0.000275471 1.10448e-05 4.07429e-06 -0.000381099 0.017011)
(-0.0166727 0.000258292 2.17598e-05 9.82155e-06 -0.000480162 0.0166629)
(-0.0162601 0.000239992 3.2488e-05 1.85169e-05 -0.000598916 0.0162416)
(-0.0157686 0.000221333 4.346e-05 3.17294e-05 -0.000740874 0.0157369)
(-0.0151872 0.000203083 5.41534e-05 5.18537e-05 -0.000909369 0.0151354)
(-0.0145061 0.00018552 6.4073e-05 8.20946e-05 -0.00110445 0.014424)
(-0.0137167 0.000168447 7.26667e-05 0.000126696 -0.00132359 0.01359)
(-0.0128124 0.000151178 7.90947e-05 0.000190766 -0.00155977 0.0126217)
(-0.01179 0.00013257 8.21959e-05 0.000279247 -0.00179852 0.0115107)
(-0.0106518 0.000111307 8.05818e-05 0.000394702 -0.00201592 0.0102571)
(-0.00940917 8.65911e-05 7.28921e-05 0.000534159 -0.00217967 0.00887502)
(-0.00808577 5.91809e-05 5.82351e-05 0.000686352 -0.00225477 0.00739942)
(-0.00671969 3.38793e-05 3.70691e-05 0.000831935 -0.00221361 0.00588776)
(-0.00536181 1.58996e-05 1.62497e-05 0.000949658 -0.00204704 0.00441216)
(-0.00403583 6.53232e-06 2.88334e-06 0.00101346 -0.00175016 0.00302237)
(-0.00270295 2.96163e-06 -1.85779e-06 0.000960644 -0.00129373 0.0017423)
(-0.0013584 1.44201e-06 -1.44199e-06 0.000679201 -0.000679201 0.000679201)
(-0.00036551 4.14352e-07 -2.60024e-07 0.00024981 -0.000170008 0.000115699)
(-3.81898e-05 3.96667e-08 -7.82825e-10 3.32048e-05 -1.28657e-05 4.98497e-06)
(-1.04117e-06 6.10741e-10 6.76046e-10 1.02579e-06 -1.25626e-07 1.53846e-08)
(-0.0325372 2.6397e-05 -0.000223183 5.68601e-07 0.000138682 0.0325366)
(-0.0328654 8.29287e-05 -0.000209497 3.54432e-06 0.000351622 0.0328619)
(-0.0333446 0.000145931 -0.000188825 4.95128e-06 0.000432417 0.0333397)
(-0.0338154 0.000211413 -0.000169989 3.60186e-06 0.000409009 0.0338118)
(-0.034204 0.000273326 -0.00015612 1.19301e-06 0.000341081 0.0342028)
(-0.0345006 0.000327952 -0.000146736 -1.0329e-06 0.000269558 0.0345016)
(-0.03472 0.000374384 -0.000140273 -2.8052e-06 0.000208318 0.0347228)
(-0.0348789 0.000413241 -0.000135521 -4.20515e-06 0.000156844 0.0348831)
(-0.0349895 0.000445527 -0.000131857 -5.32895e-06 0.000111399 0.0349948)
(-0.0350602 0.00047211 -0.000129047 -6.22566e-06 6.9676e-05 0.0350664)
(-0.0350975 0.000493616 -0.000126988 -6.91759e-06 3.12268e-05 0.0351045)
(-0.0351073 0.000510475 -0.000125543 -7.42168e-06 -3.64898e-06 0.0351147)
(-0.0350946 0.000522985 -0.000124516 -7.75513e-06 -3.48916e-05 0.0351023)
(-0.035064 0.000531353 -0.000123654 -7.93184e-06 -6.30497e-05 0.0350719)
(-0.0350191 0.000535749 -0.000122705 -7.95983e-06 -8.91363e-05 0.035027)
(-0.0349622 0.000536355 -0.000121399 -7.84203e-06 -0.000114349 0.0349701)
(-0.034895 0.000533391 -0.000119483 -7.57817e-06 -0.000139842 0.0349026)
(-0.034818 0.000527154 -0.000116777 -7.17082e-06 -0.000166225 0.0348251)
(-0.034731 0.000518014 -0.000113119 -6.62968e-06 -0.000193465 0.0347376)
(-0.0346337 0.000506386 -0.000108361 -5.96847e-06 -0.000221373 0.0346396)
(-0.0345251 0.00049269 -0.000102346 -5.19433e-06 -0.000250306 0.0345303)
(-0.034404 0.000477326 -9.48658e-05 -4.28799e-06 -0.000281995 0.0344083)
(-0.0342696 0.000460613 -8.56371e-05 -3.17621e-06 -0.000320126 0.0342728)
(-0.0341242 0.000442753 -7.44328e-05 -1.69994e-06 -0.000370311 0.0341259)
(-0.0339578 0.000423755 -6.1247e-05 4.33661e-07 -0.00043969 0.0339574)
(-0.0337623 0.000403728 -4.61442e-05 3.72717e-06 -0.000536439 0.0337585)
(-0.0335281 0.000382724 -2.92761e-05 9.01313e-06 -0.000668927 0.0335191)
(-0.0332439 0.00036072 -1.09913e-05 1.76059e-05 -0.000844955 0.0332263)
(-0.0328968 0.00033752 8.23529e-06 3.14743e-05 -0.00107109 0.0328653)
(-0.0324723 0.000312597 2.76476e-05 5.34531e-05 -0.00135264 0.0324189)
(-0.0319549 0.000285537 4.66564e-05 8.76543e-05 -0.00169525 0.0318672)
(-0.0313247 0.000259521 6.98869e-05 0.000140492 -0.00210893 0.0311842)
(-0.0305715 0.000239365 9.235e-05 0.000221537 -0.00260391 0.03035)
(-0.0296834 0.000225158 0.0001129 0.000344099 -0.00318532 0.0293394)
(-0.0286478 0.000216275 0.000131309 0.000526216 -0.00385304 0.0281216)
(-0.0274511 0.000211057 0.000147508 0.000790632 -0.00459638 0.0266605)
(-0.0260765 0.000206108 0.000161575 0.00116199 -0.00538522 0.0249145)
(-0.0245 0.000196013 0.000173103 0.00165949 -0.00616079 0.0228405)
(-0.0226842 0.000173771 0.000179484 0.00228381 -0.00682927 0.0204004)
(-0.0205687 0.000132012 0.000172612 0.00299814 -0.00726047 0.0175706)
(-0.0180527 7.90518e-05 0.000135036 0.0037029 -0.00729056 0.0143498)
(-0.0149975 3.19441e-05 7.43146e-05 0.00421866 -0.00674358 0.0107788)
(-0.0112222 6.73173e-06 2.18868e-05 0.00424503 -0.00544228 0.00697716)
(-0.00675759 1.67886e-06 -1.67881e-06 0.0033788 -0.00337879 0.00337879)
(-0.00270295 1.85782e-06 -2.9616e-06 0.0017423 -0.00129373 0.000960643)
(-0.000593226 7.01469e-07 -4.63044e-07 0.000472349 -0.000238947 0.000120876)
(-6.03994e-05 7.67265e-08 1.36215e-08 5.57455e-05 -1.61069e-05 4.65383e-06)
(-1.6965e-06 1.3297e-09 2.4907e-09 1.6823e-06 -1.54578e-07 1.41994e-08)
(-0.0433959 1.26662e-05 -0.000129781 1.35957e-06 0.000243124 0.0433945)
(-0.0436138 4.81815e-05 -0.000103271 8.65704e-06 0.000616083 0.0436051)
(-0.0439385 0.000102901 -6.48607e-05 1.28358e-05 0.000757732 0.0439257)
(-0.0442665 0.000170419 -2.79506e-05 1.0982e-05 0.000717567 0.0442555)
(-0.0445447 0.000239969 1.48214e-06 6.76849e-06 0.000599072 0.0445379)
(-0.0447608 0.000303773 2.32772e-05 2.94381e-06 0.000473104 0.0447578)
(-0.0449213 0.000358604 3.93855e-05 9.66061e-08 0.000364258 0.0449212)
(-0.045037 0.000404017 5.15884e-05 -1.97172e-06 0.000272338 0.0450389)
(-0.0451172 0.000440677 6.09881e-05 -3.48793e-06 0.000191309 0.0451206)
(-0.0451689 0.000469375 6.81518e-05 -4.56935e-06 0.000117267 0.0451735)
(-0.0451978 0.000490724 7.34448e-05 -5.27238e-06 4.93025e-05 0.045203)
(-0.0452084 0.000505133 7.72566e-05 -5.64118e-06 -1.22754e-05 0.045214)
(-0.0452049 0.000512872 8.00441e-05 -5.72062e-06 -6.75324e-05 0.0452106)
(-0.045191 0.000514149 8.23156e-05 -5.54889e-06 -0.000117517 0.0451965)
(-0.0451698 0.000509198 8.45371e-05 -5.15144e-06 -0.000164033 0.045175)
(-0.0451439 0.000498385 8.71463e-05 -4.54171e-06 -0.00020919 0.0451484)
(-0.0451148 0.000482243 9.04983e-05 -3.72373e-06 -0.000255052 0.0451185)
(-0.0450829 0.00046149 9.47686e-05 -2.70194e-06 -0.000302869 0.0450856)
(-0.0450472 0.000436966 0.000100076 -1.48695e-06 -0.000352976 0.0450486)
(-0.0450054 0.000409498 0.000106522 -8.55675e-08 -0.000405608 0.0450055)
(-0.0449543 0.000379775 0.000114268 1.5256e-06 -0.000462061 0.0449527)
(-0.0448899 0.000348263 0.000123614 3.4476e-06 -0.000526013 0.0448865)
(-0.0448114 0.000315216 0.000135076 5.92009e-06 -0.000604281 0.0448055)
(-0.0447172 0.000280775 0.000149138 9.39927e-06 -0.000706675 0.0447078)
(-0.0445986 0.00024485 0.000165871 1.46986e-05 -0.000845732 0.0445839)
(-0.0444493 0.00020723 0.000185213 2.31973e-05 -0.00103584 0.0444261)
(-0.0442626 0.000167668 0.000206999 3.7132e-05 -0.00129187 0.0442255)
(-0.0440308 0.000125907 0.000230768 5.99851e-05 -0.00162815 0.0439708)
(-0.0437454 8.15465e-05 0.000256027 9.69583e-05 -0.00205775 0.0436485)
(-0.043397 3.36043e-05 0.000281805 0.000155636 -0.00259298 0.0432413)
(-0.0429771 -2.04518e-05 0.000305255 0.000247489 -0.00324981 0.0427296)
(-0.0424776 -7.28357e-05 0.000323121 0.000389 -0.00404389 0.0420886)
(-0.0418919 -0.000114688 0.000337746 0.000603509 -0.0049895 0.0412884)
(-0.0412208 -0.000145064 0.000349589 0.000924232 -0.00610044 0.0402966)
(-0.0404683 -0.000162144 0.000359006 0.00139554 -0.0073818 0.0390728)
(-0.0396383 -0.000163158 0.00036671 0.00207321 -0.0088223 0.0375651)
(-0.0387244 -0.000145668 0.000373252 0.00301946 -0.0103805 0.035705)
(-0.0376902 -0.000109516 0.0003781 0.00428861 -0.0119664 0.0334016)
(-0.0364331 -6.13455e-05 0.000378739 0.00589809 -0.0134191 0.030535)
(-0.0347207 -2.98086e-05 0.000366809 0.00777422 -0.014474 0.0269465)
(-0.0320436 -2.2648e-05 0.000297256 0.00963056 -0.0146925 0.022413)
(-0.027494 -4.1702e-05 0.000169114 0.0107885 -0.013425 0.0167055)
(-0.0202575 -4.44366e-05 4.44366e-05 0.0101287 -0.0101287 0.0101287)
(-0.0112222 -2.18867e-05 -6.73168e-06 0.00697716 -0.00544228 0.00424502)
(-0.00403582 -2.88331e-06 -6.53228e-06 0.00302237 -0.00175016 0.00101346)
(-0.000850974 4.4944e-07 -9.47051e-07 0.0007361 -0.000290789 0.000114874)
(-8.84521e-05 9.34642e-08 3.24488e-08 8.41411e-05 -1.90454e-05 4.31095e-06)
(-2.52068e-06 1.95506e-09 5.97118e-09 2.50757e-06 -1.8137e-07 1.31035e-08)
(-0.0480474 -5.85468e-07 -3.74641e-05 2.47526e-06 0.000344608 0.0480449)
(-0.0480478 9.51675e-06 -1.8679e-05 1.59024e-05 0.000873457 0.0480319)
(-0.0480483 4.20746e-05 6.10039e-06 2.40869e-05 0.00107577 0.0480242)
(-0.0480486 9.19866e-05 2.93756e-05 2.15693e-05 0.00102148 0.048027)
(-0.0480485 0.000148591 4.75847e-05 1.47785e-05 0.000855154 0.0480338)
(-0.0480483 0.000203038 6.1152e-05 8.66586e-06 0.000676014 0.0480396)
(-0.0480479 0.000250596 7.17187e-05 4.32211e-06 0.000519584 0.0480436)
(-0.0480475 0.000289471 8.05582e-05 1.37956e-06 0.000386846 0.0480462)
(-0.0480472 0.000319438 8.83576e-05 -5.98173e-07 0.000270101 0.0480478)
(-0.0480469 0.00034075 9.53864e-05 -1.85178e-06 0.000164012 0.0480488)
(-0.0480467 0.00035371 0.000101789 -2.50815e-06 6.70282e-05 0.0480492)
(-0.0480467 0.000358526 0.000107783 -2.66694e-06 -2.07919e-05 0.0480493)
(-0.0480467 0.000355338 0.000113684 -2.424e-06 -9.9824e-05 0.0480491)
(-0.0480468 0.000344281 0.000119876 -1.8597e-06 -0.000171667 0.0480487)
(-0.048047 0.000325621 0.000126689 -1.02768e-06 -0.000238863 0.048048)
(-0.0480473 0.000299873 0.000134431 4.61126e-08 -0.000304354 0.0480472)
(-0.0480476 0.000267813 0.000143347 1.36164e-06 -0.000371068 0.0480462)
(-0.0480478 0.00023044 0.000153534 2.93258e-06 -0.000441075 0.0480449)
(-0.048048 0.000188803 0.000165147 4.78085e-06 -0.000515566 0.0480432)
(-0.0480481 0.000143742 0.000178465 6.95706e-06 -0.00059596 0.0480412)
(-0.0480481 9.57032e-05 0.000193979 9.58851e-06 -0.000685333 0.0480385)
(-0.0480479 4.46494e-05 0.000212382 1.29637e-05 -0.000789894 0.048035)
(-0.0480475 -9.81703e-06 0.000234478 1.76608e-05 -0.000920007 0.0480298)
(-0.0480468 -6.81091e-05 0.000261146 2.47222e-05 -0.00108995 0.0480221)
(-0.0480456 -0.000130965 0.000293297 3.59495e-05 -0.00131759 0.0480097)
(-0.0480439 -0.000199358 0.000331441 5.4345e-05 -0.00162344 0.0479895)
(-0.0480414 -0.00027419 0.000375968 8.47154e-05 -0.00202913 0.0479567)
(-0.0480379 -0.000356069 0.000426868 0.000134479 -0.00255637 0.0479035)
(-0.0480332 -0.000445066 0.000484119 0.000214684 -0.00322628 0.0478185)
(-0.0480268 -0.000540055 0.000546857 0.000341296 -0.00405932 0.0476855)
(-0.0480191 -0.000640144 0.000610336 0.000537326 -0.00507766 0.0474817)
(-0.0476933 -0.00073479 0.000641075 0.000831167 -0.00626751 0.0468622)
(-0.0473121 -0.000823284 0.000662165 0.00126834 -0.00766655 0.0460437)
(-0.0469437 -0.000897777 0.000678061 0.00190709 -0.00928834 0.0450366)
(-0.0466207 -0.000947784 0.000687126 0.00282165 -0.0111318 0.043799)
(-0.0463715 -0.000960811 0.000687944 0.00410063 -0.0131739 0.0422709)
(-0.046197 -0.000924839 0.000680689 0.00583648 -0.0153498 0.0403605)
(-0.0460305 -0.000832706 0.000668254 0.00809971 -0.0175253 0.0379308)
(-0.0456796 -0.000687069 0.00065623 0.0108875 -0.019459 0.0347921)
(-0.0447532 -0.000542176 0.000644738 0.0140391 -0.0207634 0.0307141)
(-0.0424921 -0.000399318 0.000525455 0.0170569 -0.0208288 0.0254352)
(-0.0372592 -0.000267354 0.000267354 0.0186296 -0.0186296 0.0186296)
(-0.027494 -0.000169114 4.17019e-05 0.0167055 -0.013425 0.0107885)
(-0.0149975 -7.43145e-05 -3.19441e-05 0.0107788 -0.00674358 0.00421865)
(-0.00536181 -1.62496e-05 -1.58996e-05 0.00441215 -0.00204704 0.000949656)
(-0.00115184 -1.1397e-06 -2.24257e-06 0.00104671 -0.000331727 0.000105129)
(-0.000122477 2.81984e-08 1.373e-08 0.000118544 -2.15913e-05 3.93263e-06)
(-3.51367e-06 1.60884e-09 1.01498e-08 3.50174e-06 -2.04595e-07 1.1924e-08)
(-0.0480428 -1.15816e-05 -0.000287002 3.75668e-06 0.000424464 0.0480391)
(-0.0480438 -2.47194e-05 -0.000268788 2.44418e-05 0.00108248 0.0480193)
(-0.048045 -1.658e-05 -0.000242705 3.78676e-05 0.00134725 0.0480072)
(-0.0480462 1.0073e-05 -0.000216901 3.49695e-05 0.00129503 0.0480112)
(-0.0480469 4.64469e-05 -0.000195219 2.4997e-05 0.00109631 0.048022)
(-0.0480474 8.41275e-05 -0.000177679 1.57298e-05 0.000873285 0.0480317)
(-0.0480478 0.000117711 -0.000162941 9.14418e-06 0.000673342 0.0480386)
(-0.048048 0.000144339 -0.000149903 4.78488e-06 0.000500998 0.0480432)
(-0.0480481 0.000162849 -0.000137948 1.97232e-06 0.000348573 0.0480461)
(-0.0480483 0.00017282 -0.00012682 2.94205e-07 0.000210071 0.048048)
(-0.0480485 0.000174127 -0.000116338 -4.86578e-07 8.3508e-05 0.048049)
(-0.0480487 0.000166714 -0.000106212 -5.57072e-07 -3.13319e-05 0.0480492)
(-0.0480489 0.000150595 -9.60421e-05 -8.96681e-08 -0.000135177 0.048049)
(-0.0480492 0.000125879 -8.53719e-05 7.75329e-07 -0.000230169 0.0480484)
(-0.0480495 9.29028e-05 -7.38543e-05 1.948e-06 -0.000319541 0.0480475)
(-0.0480497 5.23359e-05 -6.11956e-05 3.39321e-06 -0.000407007 0.0480463)
(-0.0480499 5.07144e-06 -4.71627e-05 5.13051e-06 -0.000496374 0.0480448)
(-0.0480499 -4.7898e-05 -3.16538e-05 7.22059e-06 -0.000590743 0.0480427)
(-0.0480498 -0.000105754 -1.43953e-05 9.76204e-06 -0.000692623 0.0480401)
(-0.0480495 -0.000168172 5.13708e-06 1.29281e-05 -0.000805248 0.0480366)
(-0.048049 -0.000235394 2.77587e-05 1.70454e-05 -0.000934008 0.048032)
(-0.0480482 -0.000308173 5.45343e-05 2.27455e-05 -0.00108808 0.0480254)
(-0.0480469 -0.000387598 8.66227e-05 3.12006e-05 -0.00128139 0.0480157)
(-0.048045 -0.000474633 0.000125072 4.44502e-05 -0.0015321 0.0480005)
(-0.0480423 -0.000570291 0.000171079 6.59219e-05 -0.00186209 0.0479764)
(-0.0480384 -0.000675281 0.000225184 0.000101174 -0.00229573 0.0479372)
(-0.0480329 -0.000789716 0.000287678 0.000158878 -0.00285816 0.047874)
(-0.0480253 -0.000912519 0.000357969 0.000252057 -0.00357389 0.0477733)
(-0.0480153 -0.00104081 0.000435002 0.00039957 -0.00446566 0.0476157)
(-0.0480026 -0.00116831 0.000515997 0.00062778 -0.00555323 0.0473748)
(-0.0479873 -0.00128524 0.000597436 0.000971839 -0.00685086 0.0470155)
(-0.0479706 -0.00139188 0.00066878 0.00148073 -0.00837678 0.0464899)
(-0.0479538 -0.00148519 0.00072383 0.00221781 -0.0101371 0.045736)
(-0.0479388 -0.0015458 0.000757164 0.00325631 -0.0121112 0.0446824)
(-0.0479283 -0.00155481 0.000762679 0.00467808 -0.0142552 0.0432502)
(-0.0479251 -0.00149888 0.000739354 0.00656467 -0.0164925 0.0413605)
(-0.0479301 -0.00137605 0.000696987 0.0089832 -0.018708 0.0389469)
(-0.0479411 -0.00119914 0.000657896 0.0119705 -0.0207484 0.0359707)
(-0.0479529 -0.000985634 0.000653624 0.0155153 -0.0224307 0.0324376)
(-0.0479593 -0.000820682 0.000725845 0.0195447 -0.0235649 0.0284146)
(-0.0479147 -0.000746961 0.000746961 0.0239573 -0.0239573 0.0239573)
(-0.0424921 -0.000525455 0.000399317 0.0254352 -0.0208288 0.0170569)
(-0.0320436 -0.000297256 2.26477e-05 0.022413 -0.0146925 0.00963055)
(-0.0180527 -0.000135036 -7.90518e-05 0.0143498 -0.00729055 0.00370289)
(-0.00671969 -3.70691e-05 -3.38793e-05 0.00588776 -0.00221361 0.000831934)
(-0.00149447 -4.55377e-06 -5.08523e-06 0.00140186 -0.000360376 9.26182e-05)
(-0.000162016 -1.74481e-07 -1.34564e-07 0.000158537 -2.34866e-05 3.47934e-06)
(-4.6639e-06 -5.89287e-10 1.15235e-08 4.65335e-06 -2.21861e-07 1.05495e-08)
(-0.0480369 -2.11848e-05 -0.000436414 5.29467e-06 0.000503799 0.0480316)
(-0.0480383 -5.42366e-05 -0.000411163 3.4908e-05 0.00129339 0.0480034)
(-0.0480405 -6.73772e-05 -0.000371762 5.53305e-05 0.00162841 0.0479852)
(-0.0480426 -6.27018e-05 -0.000331191 5.25005e-05 0.00158665 0.0479901)
(-0.0480442 -4.75026e-05 -0.000295435 3.85465e-05 0.0013599 0.0480057)
(-0.0480454 -2.9183e-05 -0.000265395 2.4874e-05 0.00109253 0.0480206)
(-0.0480463 -1.29129e-05 -0.000239802 1.48956e-05 0.000845434 0.0480314)
(-0.0480471 -1.94216e-06 -0.000217359 8.2323e-06 0.000628482 0.0480388)
(-0.0480476 1.97094e-06 -0.000197222 3.9469e-06 0.000435111 0.0480437)
(-0.0480481 -2.15536e-06 -0.000178922 1.4015e-06 0.000259097 0.0480467)
(-0.0480485 -1.48578e-05 -0.000162071 1.98571e-07 9.80667e-05 0.0480483)
(-0.0480488 -3.64566e-05 -0.000146141 2.31663e-08 -4.85738e-05 0.0480488)
(-0.048049 -6.70753e-05 -0.000130502 5.96267e-07 -0.000182034 0.0480484)