/*--------------------------------*- C++ -*----------------------------------*\
| =========                 |                                                 |
| \\      /  F ield         | OpenFOAM: The Open Source CFD Toolbox           |
|  \\    /   O peration     | Version:  2506                                  |
|   \\  /    A nd           | Website:  www.openfoam.com                      |
|    \\/     M anipulation  |                                                 |
\*---------------------------------------------------------------------------*/
FoamFile
{
    version     2.0;
    format      ascii;
    arch        "LSB;label=32;scalar=64";
    class       volSymmTensorField;
    location    "2137";
    object      Tij3;
}
// * * * * * * * * * * * * * * * * * * * * * * * * * * * * * * * * * * * * * //

dimensions      [0 0 0 0 0 0 0];

internalField   nonuniform List<symmTensor> 
2304
(
(8.10081e-06 -3.06416e-08 -7.08433e-09 1.38943e-10 3.33358e-09 8.10092e-06)
(8.31555e-06 -8.59085e-08 -9.38466e-09 9.12774e-10 8.54652e-09 8.31642e-06)
(8.63351e-06 -1.27971e-07 -1.25622e-08 1.9203e-09 1.06798e-08 8.63539e-06)
(8.94957e-06 -1.57391e-07 -1.53978e-08 2.78559e-09 1.02657e-08 8.95233e-06)
(9.21175e-06 -1.77848e-07 -1.7375e-08 3.44554e-09 8.69679e-09 9.21517e-06)
(9.4126e-06 -1.93181e-07 -1.86189e-08 3.97278e-09 6.9996e-09 9.41656e-06)
(9.56225e-06 -2.05679e-07 -1.93978e-08 4.4298e-09 5.53961e-09 9.56667e-06)
(9.67187e-06 -2.16458e-07 -1.99101e-08 4.84879e-09 4.30942e-09 9.67671e-06)
(9.749e-06 -2.25987e-07 -2.02399e-08 5.24215e-09 3.2134e-09 9.75424e-06)
(9.7984e-06 -2.34563e-07 -2.04128e-08 5.61846e-09 2.19439e-09 9.80402e-06)
(9.82381e-06 -2.4246e-07 -2.04361e-08 5.98733e-09 1.24582e-09 9.82979e-06)
(9.82889e-06 -2.49939e-07 -2.03268e-08 6.35916e-09 3.81825e-10 9.83524e-06)
(9.81724e-06 -2.57207e-07 -2.01101e-08 6.74261e-09 -3.90218e-10 9.82397e-06)
(9.79208e-06 -2.64385e-07 -1.98185e-08 7.14286e-09 -1.07966e-09 9.79922e-06)
(9.75598e-06 -2.71498e-07 -1.94825e-08 7.56064e-09 -1.70868e-09 9.76353e-06)
(9.71077e-06 -2.78485e-07 -1.91345e-08 7.9922e-09 -2.30414e-09 9.71876e-06)
(9.65766e-06 -2.85193e-07 -1.88059e-08 8.42825e-09 -2.89152e-09 9.66608e-06)
(9.59738e-06 -2.91412e-07 -1.8519e-08 8.85533e-09 -3.48171e-09 9.60623e-06)
(9.53065e-06 -2.96909e-07 -1.82976e-08 9.25696e-09 -4.06853e-09 9.5399e-06)
(9.45831e-06 -3.0143e-07 -1.81649e-08 9.61396e-09 -4.64207e-09 9.46791e-06)
(9.38124e-06 -3.04717e-07 -1.81465e-08 9.90526e-09 -5.2071e-09 9.39114e-06)
(9.30005e-06 -3.0649e-07 -1.82685e-08 1.0108e-08 -5.80434e-09 9.31015e-06)
(9.21449e-06 -3.06448e-07 -1.85474e-08 1.01988e-08 -6.52357e-09 9.22467e-06)
(9.12299e-06 -3.04289e-07 -1.89836e-08 1.01567e-08 -7.50605e-09 9.13313e-06)
(9.02233e-06 -2.99691e-07 -1.95873e-08 9.96336e-09 -8.92959e-09 9.03228e-06)
(8.90765e-06 -2.92333e-07 -2.03333e-08 9.60582e-09 -1.09864e-08 8.91724e-06)
(8.77281e-06 -2.81961e-07 -2.11748e-08 9.08148e-09 -1.38617e-08 8.78186e-06)
(8.61076e-06 -2.68441e-07 -2.20308e-08 8.40171e-09 -1.77036e-08 8.61911e-06)
(8.41442e-06 -2.51822e-07 -2.28116e-08 7.59369e-09 -2.2592e-08 8.42192e-06)
(8.17741e-06 -2.32328e-07 -2.34554e-08 6.69757e-09 -2.85353e-08 8.18393e-06)
(7.89464e-06 -2.1032e-07 -2.4008e-08 5.76191e-09 -3.55435e-08 7.90011e-06)
(7.56166e-06 -1.85766e-07 -2.47765e-08 4.81863e-09 -4.37916e-08 7.56601e-06)
(7.17241e-06 -1.58721e-07 -2.54135e-08 3.91568e-09 -5.34273e-08 7.17557e-06)
(6.72216e-06 -1.29911e-07 -2.5673e-08 3.13657e-09 -6.43243e-08 6.72411e-06)
(6.20882e-06 -1.00396e-07 -2.53369e-08 2.57318e-09 -7.61445e-08 6.20957e-06)
(5.63403e-06 -7.15718e-08 -2.41377e-08 2.3123e-09 -8.8256e-08 5.63362e-06)
(5.00488e-06 -4.51627e-08 -2.17905e-08 2.41307e-09 -9.96306e-08 5.00337e-06)
(4.33564e-06 -2.30449e-08 -1.81302e-08 2.87561e-09 -1.0887e-07 4.33308e-06)
(3.64827e-06 -6.83521e-09 -1.33182e-08 3.61694e-09 -1.14461e-07 3.64472e-06)
(2.97063e-06 2.69415e-09 -7.99847e-09 4.48174e-09 -1.15249e-07 2.96617e-06)
(2.33195e-06 6.05045e-09 -3.22699e-09 5.30392e-09 -1.10938e-07 2.32668e-06)
(1.75684e-06 5.28316e-09 -2.30562e-10 5.99364e-09 -1.02297e-07 1.75087e-06)
(1.26034e-06 3.09529e-09 8.01301e-10 6.56904e-09 -9.06825e-08 1.25379e-06)
(8.48251e-07 1.29164e-09 6.96495e-10 7.10548e-09 -7.7288e-08 8.41153e-07)
(5.20587e-07 3.57019e-10 3.19388e-10 7.69355e-09 -6.28129e-08 5.12895e-07)
(2.75012e-07 4.75623e-11 7.38329e-11 8.45925e-09 -4.74847e-08 2.66553e-07)
(1.09396e-07 -3.43503e-13 1.2706e-12 9.68477e-09 -3.10754e-08 9.97116e-08)
(2.46273e-08 6.37485e-13 -6.37579e-13 1.23136e-08 -1.23136e-08 1.23136e-08)
(0.000277096 -8.57288e-07 -2.89927e-06 1.28235e-08 3.56366e-07 0.000277097)
(0.000284426 -2.42303e-06 -3.16378e-06 3.12889e-08 9.14933e-07 0.000284443)
(0.00029527 -3.66051e-06 -3.53965e-06 5.49964e-08 1.14719e-06 0.000295313)
(0.000306039 -4.5785e-06 -3.89315e-06 7.57757e-08 1.10962e-06 0.000306108)
(0.000314964 -5.25878e-06 -4.16252e-06 9.28718e-08 9.49441e-07 0.000315055)
(0.000321798 -5.79072e-06 -4.35098e-06 1.0782e-07 7.74983e-07 0.000321907)
(0.00032689 -6.23048e-06 -4.48185e-06 1.21532e-07 6.24851e-07 0.000327015)
(0.000330622 -6.60776e-06 -4.57416e-06 1.34356e-07 4.98356e-07 0.000330761)
(0.00033325 -6.93681e-06 -4.63759e-06 1.464e-07 3.85542e-07 0.000333402)
(0.000334936 -7.22717e-06 -4.67625e-06 1.57809e-07 2.80487e-07 0.0003351)
(0.000335806 -7.48726e-06 -4.69256e-06 1.68785e-07 1.8258e-07 0.000335981)
(0.000335985 -7.72483e-06 -4.68954e-06 1.79543e-07 9.33564e-08 0.000336171)
(0.000335595 -7.94593e-06 -4.67084e-06 1.90244e-07 1.36204e-08 0.000335792)
(0.000334747 -8.15428e-06 -4.64043e-06 2.00958e-07 -5.76159e-08 0.000334954)
(0.000333527 -8.35098e-06 -4.60185e-06 2.1165e-07 -1.22709e-07 0.000333743)
(0.000331997 -8.53485e-06 -4.55839e-06 2.22186e-07 -1.84531e-07 0.000332223)
(0.000330197 -8.7024e-06 -4.51285e-06 2.32312e-07 -2.45829e-07 0.000330434)
(0.000328153 -8.8488e-06 -4.46716e-06 2.41701e-07 -3.07798e-07 0.000328398)
(0.000325886 -8.96872e-06 -4.42325e-06 2.49973e-07 -3.69817e-07 0.000326139)
(0.000323424 -9.05662e-06 -4.38312e-06 2.5671e-07 -4.30842e-07 0.000323684)
(0.000320799 -9.10686e-06 -4.34901e-06 2.61479e-07 -4.9135e-07 0.000321064)
(0.00031803 -9.1134e-06 -4.32319e-06 2.63848e-07 -5.5558e-07 0.000318298)
(0.000315112 -9.06938e-06 -4.307e-06 2.63416e-07 -6.32936e-07 0.00031538)
(0.000311975 -8.96701e-06 -4.29986e-06 2.59873e-07 -7.38299e-07 0.000312239)
(0.000308518 -8.79862e-06 -4.30106e-06 2.5308e-07 -8.90482e-07 0.000308776)
(0.000304588 -8.55671e-06 -4.30689e-06 2.43173e-07 -1.10971e-06 0.000304836)
(0.000299979 -8.23512e-06 -4.31116e-06 2.30716e-07 -1.41555e-06 0.000300211)
(0.000294453 -7.83059e-06 -4.30509e-06 2.16841e-07 -1.8237e-06 0.000294664)
(0.00028777 -7.34426e-06 -4.27918e-06 2.03337e-07 -2.34271e-06 0.000287955)
(0.000279712 -6.78282e-06 -4.2261e-06 1.92672e-07 -2.97349e-06 0.000279863)
(0.000270106 -6.15949e-06 -4.14767e-06 1.88126e-07 -3.71667e-06 0.000270215)
(0.000258809 -5.47628e-06 -4.05844e-06 1.93998e-07 -4.59113e-06 0.000258864)
(0.000245614 -4.7356e-06 -3.93644e-06 2.1672e-07 -5.61231e-06 0.0002456)
(0.000230366 -3.95645e-06 -3.76379e-06 2.64824e-07 -6.76721e-06 0.00023026)
(0.000212993 -3.16234e-06 -3.52675e-06 3.4842e-07 -8.02129e-06 0.000212763)
(0.000193542 -2.3814e-06 -3.21073e-06 4.78151e-07 -9.30949e-06 0.000193147)
(0.000172232 -1.6478e-06 -2.80317e-06 6.61997e-07 -1.05243e-05 0.000171624)
(0.000149514 -1.00123e-06 -2.30305e-06 8.99912e-07 -1.15171e-05 0.000148646)
(0.000126102 -4.82365e-07 -1.73373e-06 1.17834e-06 -1.21231e-05 0.000124939)
(0.000102928 -1.2343e-07 -1.15105e-06 1.46926e-06 -1.22117e-05 0.000101463)
(8.10083e-05 6.07598e-08 -6.36927e-07 1.73902e-06 -1.17432e-05 7.92699e-05)
(6.12384e-05 1.02118e-07 -2.8044e-07 1.96655e-06 -1.07959e-05 5.92719e-05)
(4.42261e-05 7.41575e-08 -9.81332e-08 2.15613e-06 -9.52277e-06 4.20704e-05)
(3.01997e-05 3.78626e-08 -3.14361e-08 2.32739e-06 -8.05337e-06 2.78727e-05)
(1.90949e-05 1.58395e-08 -1.35498e-08 2.49267e-06 -6.43278e-06 1.66024e-05)
(1.04558e-05 6.28446e-09 -7.23017e-09 2.54944e-06 -4.48959e-06 7.90643e-06)
(3.24949e-06 1.31895e-09 -1.31898e-09 1.62475e-06 -1.62474e-06 1.62475e-06)
(1.09396e-07 -1.27149e-12 3.42898e-13 9.97115e-08 -3.10754e-08 9.68475e-09)
(0.00233441 -5.64355e-06 -7.08087e-05 3.61177e-07 5.19262e-06 0.00233428)
(0.00238894 -1.60786e-05 -7.48088e-05 4.58155e-07 1.33154e-05 0.00238887)
(0.00246942 -2.465e-05 -8.05947e-05 5.55248e-07 1.66848e-05 0.00246951)
(0.0025493 -3.13946e-05 -8.61094e-05 6.23091e-07 1.61651e-05 0.00254959)
(0.00261568 -3.67067e-05 -9.04206e-05 6.86044e-07 1.38987e-05 0.00261615)
(0.00266669 -4.10309e-05 -9.35294e-05 7.595e-07 1.14353e-05 0.00266733)
(0.00270482 -4.46584e-05 -9.57464e-05 8.40548e-07 9.31941e-06 0.00270559)
(0.0027328 -4.77587e-05 -9.73383e-05 9.22958e-07 7.53824e-06 0.00273368)
(0.00275252 -5.04272e-05 -9.84531e-05 1.00297e-06 5.94984e-06 0.00275351)
(0.00276522 -5.2734e-05 -9.91627e-05 1.07982e-06 4.47008e-06 0.0027663)
(0.00277187 -5.47409e-05 -9.95151e-05 1.15395e-06 3.09004e-06 0.00277303)
(0.00277341 -5.65022e-05 -9.95629e-05 1.22584e-06 1.83084e-06 0.00277464)
(0.00277074 -5.80598e-05 -9.93649e-05 1.29541e-06 7.03011e-07 0.00277203)
(0.00276466 -5.94398e-05 -9.89816e-05 1.36195e-06 -3.08555e-07 0.00276602)
(0.00275579 -6.06521e-05 -9.84653e-05 1.42433e-06 -1.23845e-06 0.0027572)
(0.00274456 -6.16939e-05 -9.78621e-05 1.48094e-06 -2.12875e-06 0.00274602)
(0.00273122 -6.25496e-05 -9.72093e-05 1.52987e-06 -3.01972e-06 0.00273273)
(0.00271591 -6.31986e-05 -9.65315e-05 1.56913e-06 -3.92911e-06 0.00271746)
(0.00269875 -6.36205e-05 -9.58518e-05 1.59674e-06 -4.84794e-06 0.00270033)
(0.0026799 -6.37963e-05 -9.51936e-05 1.61072e-06 -5.76031e-06 0.00268151)
(0.00265954 -6.37078e-05 -9.45826e-05 1.60931e-06 -6.67116e-06 0.00266117)
(0.00263779 -6.33341e-05 -9.40433e-05 1.5912e-06 -7.63837e-06 0.00263943)
(0.00261459 -6.26465e-05 -9.3587e-05 1.55605e-06 -8.79421e-06 0.00261623)
(0.00259015 -6.16202e-05 -9.32328e-05 1.5054e-06 -1.03546e-05 0.00259178)
(0.00256336 -6.02028e-05 -9.29392e-05 1.44285e-06 -1.25896e-05 0.00256496)
(0.00253293 -5.83479e-05 -9.2633e-05 1.37655e-06 -1.579e-05 0.00253447)
(0.00249732 -5.60162e-05 -9.22144e-05 1.32149e-06 -2.02429e-05 0.00249876)
(0.00245473 -5.31816e-05 -9.15496e-05 1.3017e-06 -2.61852e-05 0.00245602)
(0.00240331 -4.9844e-05 -9.04897e-05 1.35211e-06 -3.37601e-05 0.00240435)
(0.00234128 -4.6053e-05 -8.89004e-05 1.52024e-06 -4.30035e-05 0.00234194)
(0.00226718 -4.19487e-05 -8.67409e-05 1.8696e-06 -5.39406e-05 0.00226727)
(0.00217985 -3.75463e-05 -8.4128e-05 2.49821e-06 -6.68638e-05 0.00217911)
(0.00207757 -3.28299e-05 -8.07955e-05 3.5585e-06 -8.20261e-05 0.00207558)
(0.001959 -2.79064e-05 -7.65337e-05 5.24831e-06 -9.9292e-05 0.00195513)
(0.00182331 -2.28571e-05 -7.11896e-05 7.81191e-06 -0.000118238 0.0018167)
(0.00167041 -1.77416e-05 -6.46087e-05 1.15223e-05 -0.000138003 0.00165991)
(0.00150132 -1.26448e-05 -5.66709e-05 1.66071e-05 -0.000157067 0.00148554)
(0.00131872 -7.73562e-06 -4.73981e-05 2.31113e-05 -0.000173207 0.00129621)
(0.00112732 -3.31981e-06 -3.71067e-05 3.07366e-05 -0.000183781 0.00109696)
(0.000934004 1.59175e-07 -2.65231e-05 3.87714e-05 -0.000186455 0.000895403)
(0.000747237 2.12878e-06 -1.67599e-05 4.62672e-05 -0.00018016 0.000701015)
(0.000575918 2.51354e-06 -9.29809e-06 5.25594e-05 -0.000165859 0.000523363)
(0.000425487 1.99083e-06 -4.68112e-06 5.7449e-05 -0.00014539 0.000368042)
(0.000296613 1.29029e-06 -2.22817e-06 6.04486e-05 -0.000119467 0.00023617)
(0.000182755 6.94217e-07 -9.28563e-07 5.78534e-05 -8.50003e-05 0.000124904)
(7.54771e-05 2.02798e-07 -2.02799e-07 3.77389e-05 -3.77377e-05 3.77389e-05)
(1.04558e-05 7.23003e-09 -6.28456e-09 7.90643e-06 -4.48959e-06 2.54944e-06)
(2.75012e-07 -7.38353e-11 -4.75646e-11 2.66553e-07 -4.74846e-08 8.45923e-09)
(0.00834764 -1.48779e-05 -0.000432645 3.02691e-06 2.68453e-05 0.00834364)
(0.00849143 -4.28341e-05 -0.000449504 3.22721e-06 6.85665e-05 0.00848725)
(0.00870227 -6.68317e-05 -0.000474232 3.1942e-06 8.54459e-05 0.00869826)
(0.00891015 -8.68555e-05 -0.000497603 2.9446e-06 8.23744e-05 0.00890666)
(0.00908214 -0.000103531 -0.000515781 2.74572e-06 7.05558e-05 0.00907925)
(0.00921393 -0.00011759 -0.000528854 2.70788e-06 5.78632e-05 0.00921154)
(0.00931209 -0.000129529 -0.000538174 2.78935e-06 4.70011e-05 0.0093101)
(0.00938383 -0.000139679 -0.000544884 2.92865e-06 3.78749e-05 0.00938218)
(0.00943423 -0.000148277 -0.00054963 3.08926e-06 2.9761e-05 0.00943287)
(0.00946665 -0.000155525 -0.000552735 3.25808e-06 2.22268e-05 0.00946555)
(0.00948374 -0.000161608 -0.000554414 3.43084e-06 1.52135e-05 0.00948288)
(0.00948797 -0.000166682 -0.000554889 3.60347e-06 8.81083e-06 0.00948731)
(0.00948165 -0.000170865 -0.000554406 3.76936e-06 3.05682e-06 0.00948117)
(0.00946679 -0.00017423 -0.00055321 3.92017e-06 -2.13666e-06 0.00946645)
(0.00944491 -0.000176811 -0.000551516 4.04744e-06 -6.95349e-06 0.0094447)
(0.00941706 -0.000178621 -0.000549515 4.14295e-06 -1.16147e-05 0.00941698)
(0.00938385 -0.000179653 -0.000547362 4.19937e-06 -1.63318e-05 0.00938388)
(0.00934554 -0.000179905 -0.000545164 4.21159e-06 -2.12028e-05 0.00934566)
(0.00930227 -0.000179393 -0.000543024 4.17554e-06 -2.61895e-05 0.00930249)
(0.00925426 -0.00017815 -0.000541043 4.08779e-06 -3.12157e-05 0.00925456)
(0.00920169 -0.000176212 -0.000539325 3.94635e-06 -3.6307e-05 0.0092021)
(0.00914462 -0.000173601 -0.000537963 3.75208e-06 -4.17528e-05 0.00914513)
(0.00908281 -0.000170298 -0.000537007 3.5122e-06 -4.82332e-05 0.00908345)
(0.00901767 -0.000166265 -0.000536643 3.24576e-06 -5.68421e-05 0.00901841)
(0.0089454 -0.000161352 -0.00053658 2.98937e-06 -6.89531e-05 0.00894622)
(0.00886264 -0.000155426 -0.000536502 2.81151e-06 -8.60944e-05 0.00886344)
(0.00876536 -0.000148349 -0.000535983 2.82753e-06 -0.000109804 0.00876595)
(0.00864875 -0.000139993 -0.000534447 3.21889e-06 -0.000141433 0.00864875)
(0.00850755 -0.000130284 -0.000531217 4.25129e-06 -0.000181958 0.00850634)
(0.00833634 -0.000119327 -0.000525537 6.29673e-06 -0.00023191 0.00833296)
(0.00813006 -0.000107704 -0.000516787 9.85308e-06 -0.000291757 0.00812305)
(0.00788431 -9.54831e-05 -0.0005049 1.57127e-05 -0.000363247 0.00787145)
(0.00759362 -8.25515e-05 -0.000488978 2.512e-05 -0.000448055 0.00757142)
(0.00725304 -6.91224e-05 -0.000468289 3.97232e-05 -0.000546195 0.00721639)
(0.00685834 -5.50959e-05 -0.000442185 6.16545e-05 -0.000656415 0.00679993)
(0.00640621 -4.00651e-05 -0.000409906 9.34672e-05 -0.000775239 0.00631612)
(0.005895 -2.35923e-05 -0.000370671 0.000137624 -0.000895462 0.00576068)
(0.00532589 -5.64826e-06 -0.000323974 0.0001954 -0.00100513 0.00513343)
(0.00470459 1.28013e-05 -0.000270058 0.000265323 -0.00108806 0.00444151)
(0.00404289 2.93203e-05 -0.000210453 0.000341806 -0.00112659 0.00370244)
(0.00335985 3.86972e-05 -0.0001485 0.000415176 -0.00110665 0.00294522)
(0.00268091 3.78217e-05 -9.33421e-05 0.000474583 -0.00102355 0.00220645)
(0.00201791 2.94134e-05 -5.19004e-05 0.000506752 -0.00087504 0.00151119)
(0.00135147 1.79636e-05 -2.38597e-05 0.000480368 -0.000646786 0.000871131)
(0.000679201 6.9024e-06 -6.90241e-06 0.000339608 -0.000339564 0.000339607)
(0.000182755 9.28559e-07 -6.94218e-07 0.000124904 -8.50003e-05 5.78533e-05)
(1.90949e-05 1.35495e-08 -1.58397e-08 1.66024e-05 -6.43277e-06 2.49267e-06)
(5.20587e-07 -3.19392e-10 -3.57024e-10 5.12895e-07 -6.28128e-08 7.69353e-09)
(0.0162686 -2.05729e-05 -0.00116037 1.02657e-05 7.03313e-05 0.0162524)
(0.0164327 -6.00359e-05 -0.00119532 1.07621e-05 0.000178917 0.0164157)
(0.0166723 -9.53785e-05 -0.00124725 1.02313e-05 0.000221677 0.0166557)
(0.0169077 -0.000126246 -0.00129695 8.75444e-06 0.000212459 0.0168929)
(0.017102 -0.000153167 -0.00133631 7.3438e-06 0.000180895 0.0170892)
(0.0172503 -0.0001766 -0.00136512 6.46655e-06 0.000147301 0.0172392)
(0.01736 -0.00019675 -0.00138591 6.03523e-06 0.000118563 0.0173502)
(0.0174394 -0.000213757 -0.00140099 5.85966e-06 9.44245e-05 0.0174307)
(0.0174947 -0.000227817 -0.00141179 5.81528e-06 7.30386e-05 0.0174868)
(0.0175301 -0.000239189 -0.00141907 5.84828e-06 5.32753e-05 0.0175228)
(0.0175488 -0.000248157 -0.00142338 5.93368e-06 3.49316e-05 0.0175419)
(0.0175536 -0.000254971 -0.00142524 6.04945e-06 1.81758e-05 0.0175471)
(0.0175473 -0.00025981 -0.00142521 6.16857e-06 3.05465e-06 0.017541)
(0.017532 -0.000262778 -0.00142383 6.26233e-06 -1.06917e-05 0.0175259)
(0.0175095 -0.000263936 -0.00142161 6.30567e-06 -2.3556e-05 0.0175035)
(0.0174811 -0.000263345 -0.00141896 6.27804e-06 -3.6123e-05 0.0174752)
(0.0174475 -0.000261071 -0.00141624 6.16553e-06 -4.89558e-05 0.0174416)
(0.017409 -0.000257241 -0.00141366 5.96304e-06 -6.23445e-05 0.0174031)
(0.0173655 -0.000252055 -0.00141138 5.66873e-06 -7.6255e-05 0.0173597)
(0.0173168 -0.000245749 -0.00140954 5.28187e-06 -9.05742e-05 0.0173111)
(0.0172626 -0.00023855 -0.00140823 4.80493e-06 -0.00010546 0.0172569)
(0.017202 -0.000230605 -0.00140758 4.24846e-06 -0.000121762 0.0171965)
(0.0171348 -0.000221929 -0.00140779 3.64249e-06 -0.000141309 0.0171295)
(0.0170621 -0.000212412 -0.00140922 3.05937e-06 -0.000166896 0.017057)
(0.0169789 -0.000201744 -0.0014112 2.64778e-06 -0.000202105 0.0169738)
(0.0168811 -0.000189581 -0.00141309 2.67318e-06 -0.000251036 0.0168757)
(0.016764 -0.000175521 -0.00141413 3.57501e-06 -0.000317892 0.0167574)
(0.016622 -0.000159148 -0.00141323 6.04722e-06 -0.0004066 0.0166126)
(0.0164484 -0.000140072 -0.00140911 1.11248e-05 -0.000520476 0.0164338)
(0.0162362 -0.000118049 -0.00140015 2.03157e-05 -0.000662195 0.0162123)
(0.0159774 -9.35439e-05 -0.00138493 3.57173e-05 -0.00083456 0.0159382)
(0.0156623 -6.73783e-05 -0.00136683 6.05852e-05 -0.00104244 0.0155989)
(0.0152858 -4.06207e-05 -0.00134005 9.98425e-05 -0.0012909 0.0151839)
(0.0148417 -1.32391e-05 -0.00130262 0.000160191 -0.00158251 0.0146805)
(0.0143239 1.5472e-05 -0.00125337 0.000250653 -0.00191728 0.0140733)
(0.0137256 4.69789e-05 -0.00119114 0.000382613 -0.00228998 0.0133441)
(0.0130382 8.31216e-05 -0.00111478 0.000568425 -0.00268575 0.0124719)
(0.01225 0.000125256 -0.00102291 0.000817753 -0.00307533 0.0114349)
(0.0113421 0.000172861 -0.000912901 0.00113107 -0.0034119 0.010214)
(0.0102844 0.000222009 -0.000778836 0.00149037 -0.00363021 0.00879676)
(0.00902633 0.000251428 -0.000608494 0.001846 -0.00364709 0.00718198)
(0.00749875 0.000237927 -0.000416148 0.00210719 -0.00337353 0.00539207)
(0.00561109 0.000177713 -0.000233389 0.00212222 -0.0027217 0.00348898)
(0.00337879 9.09053e-05 -9.09054e-05 0.00168943 -0.00168928 0.00168943)
(0.00135147 2.38597e-05 -1.79636e-05 0.000871131 -0.000646785 0.000480367)
(0.000296613 2.22816e-06 -1.2903e-06 0.00023617 -0.000119467 6.04485e-05)
(3.01997e-05 3.14357e-08 -3.7863e-08 2.78727e-05 -8.05336e-06 2.32739e-06)
(8.48251e-07 -6.96501e-10 -1.29165e-09 8.41152e-07 -7.72879e-08 7.10546e-09)
(0.0216979 -2.20253e-05 -0.00200108 1.99702e-05 0.000122456 0.0216853)
(0.0218069 -6.36369e-05 -0.00204365 2.16914e-05 0.000311089 0.0217929)
(0.0219693 -9.92821e-05 -0.00210645 2.11223e-05 0.000384752 0.0219567)
(0.0221332 -0.000129245 -0.00216828 1.79697e-05 0.000368002 0.0221251)
(0.0222724 -0.000155593 -0.00221885 1.44818e-05 0.000312225 0.0222692)
(0.0223804 -0.000179268 -0.00225692 1.19123e-05 0.000252525 0.0223813)
(0.0224606 -0.000200085 -0.002285 1.02608e-05 0.000201014 0.0224646)
(0.0225185 -0.000217537 -0.00230573 9.20081e-06 0.00015752 0.0225248)
(0.0225586 -0.000231362 -0.00232092 8.48539e-06 0.00011902 0.0225666)
(0.0225845 -0.0002416 -0.00233169 7.99331e-06 8.35782e-05 0.0225938)
(0.0225989 -0.000248488 -0.00233885 7.66084e-06 5.07652e-05 0.0226091)
(0.0226042 -0.000252289 -0.00234314 7.43422e-06 2.07619e-05 0.022615)
(0.0226024 -0.000253191 -0.00234535 7.2549e-06 -6.44103e-06 0.0226136)
(0.0225955 -0.000251293 -0.00234629 7.06633e-06 -3.13464e-05 0.0226068)
(0.0225849 -0.000246658 -0.00234666 6.82488e-06 -5.48333e-05 0.0225963)
(0.022572 -0.000239401 -0.00234707 6.50071e-06 -7.79289e-05 0.0225833)
(0.0225574 -0.000229682 -0.00234801 6.08055e-06 -0.000101632 0.0225687)
(0.0225414 -0.000217793 -0.00234967 5.56872e-06 -0.000126532 0.0225527)
(0.0225236 -0.000204154 -0.0023521 4.97338e-06 -0.000152749 0.0225349)
(0.0225027 -0.0001892 -0.00235526 4.3019e-06 -0.000180359 0.022514)
(0.0224771 -0.000173283 -0.00235904 3.5679e-06 -0.000209968 0.0224885)
(0.022445 -0.000156544 -0.00236346 2.80635e-06 -0.000243385 0.0224564)
(0.0224057 -0.000138823 -0.00236894 2.10507e-06 -0.000284004 0.0224172)
(0.0223586 -0.000119704 -0.00237586 1.6639e-06 -0.000336731 0.02237)
(0.0222993 -9.84669e-05 -0.00238362 1.88476e-06 -0.000407864 0.02231)
(0.0222246 -7.42177e-05 -0.00239171 3.47208e-06 -0.000504639 0.0222334)
(0.0221313 -4.59605e-05 -0.00239949 7.57951e-06 -0.000634552 0.0221356)
(0.0220154 -1.2707e-05 -0.00240599 1.60101e-05 -0.000804831 0.0220111)
(0.0218727 2.64498e-05 -0.00241015 3.1442e-05 -0.00102208 0.021853)
(0.0216985 7.20922e-05 -0.00241046 5.78037e-05 -0.00129253 0.0216527)
(0.0214886 0.00012242 -0.00240395 0.000101086 -0.00162399 0.0213999)
(0.0212388 0.000177321 -0.00238654 0.000169842 -0.00202415 0.0210818)
(0.0209459 0.000237602 -0.00235911 0.000275716 -0.00250003 0.0206838)
(0.0206104 0.000301394 -0.00232163 0.000435128 -0.00305835 0.0201896)
(0.0202342 0.000368824 -0.00227346 0.000670253 -0.00370162 0.0195791)
(0.0198191 0.000440522 -0.0022131 0.00100899 -0.00442419 0.0188262)
(0.0193622 0.000516808 -0.00213676 0.00148249 -0.0052053 0.0178965)
(0.0188451 0.000597122 -0.00203637 0.00211806 -0.0059999 0.0167437)
(0.0182165 0.000680152 -0.00189815 0.00292475 -0.0067275 0.0153071)
(0.0173603 0.000769739 -0.00170119 0.00386724 -0.00725633 0.0135059)
(0.0160218 0.000818041 -0.00139301 0.00480266 -0.0073642 0.0112261)
(0.013747 0.000749326 -0.000979193 0.00538969 -0.00672476 0.00835928)
(0.0101287 0.000524995 -0.000524995 0.00506441 -0.00506892 0.00506441)
(0.00561109 0.000233388 -0.000177713 0.00348898 -0.0027217 0.00212221)
(0.00201791 5.19004e-05 -2.94134e-05 0.00151119 -0.000875039 0.000506752)
(0.000425487 4.68111e-06 -1.99083e-06 0.000368042 -0.00014539 5.74489e-05)
(4.4226e-05 9.81326e-08 -7.41581e-08 4.20703e-05 -9.52275e-06 2.15612e-06)
(1.26034e-06 -8.01309e-10 -3.09531e-09 1.25379e-06 -9.06824e-08 6.56903e-09)
(0.0240237 -2.38815e-05 -0.00244494 2.94526e-05 0.000172825 0.0240186)
(0.0240239 -6.54827e-05 -0.00246324 3.35626e-05 0.0004386 0.024014)
(0.0240242 -9.43106e-05 -0.00248809 3.38702e-05 0.000541706 0.0240127)
(0.0240243 -0.000113468 -0.00251203 2.90984e-05 0.000517024 0.0240166)
(0.0240243 -0.000128922 -0.00253087 2.3072e-05 0.000436596 0.0240219)
(0.0240241 -0.000143555 -0.00254477 1.82379e-05 0.00034975 0.0240263)
(0.024024 -0.000157186 -0.0025554 1.48569e-05 0.000274012 0.0240295)
(0.0240238 -0.000168543 -0.00256413 1.24985e-05 0.00020973 0.0240317)
(0.0240236 -0.000176647 -0.00257171 1.07838e-05 0.00015299 0.0240334)
(0.0240235 -0.000181092 -0.00257845 9.50852e-06 0.00010111 0.0240346)
(0.0240234 -0.000181903 -0.00258453 8.55674e-06 5.33248e-05 0.0240356)
(0.0240233 -0.000179249 -0.0025902 7.83291e-06 9.68007e-06 0.0240363)
(0.0240233 -0.00017327 -0.00259581 7.24122e-06 -2.99946e-05 0.0240369)
(0.0240234 -0.000164016 -0.00260175 6.69689e-06 -6.64838e-05 0.0240373)
(0.0240235 -0.000151541 -0.00260836 6.14306e-06 -0.00010104 0.0240378)
(0.0240236 -0.000135998 -0.00261596 5.55026e-06 -0.000135102 0.0240383)
(0.0240238 -0.000117605 -0.00262478 4.91774e-06 -0.000170096 0.0240388)
(0.0240239 -9.67342e-05 -0.00263494 4.27022e-06 -0.000207012 0.0240393)
(0.024024 -7.38766e-05 -0.00264659 3.6344e-06 -0.000246388 0.0240399)
(0.0240241 -4.94469e-05 -0.00266002 3.03546e-06 -0.000288888 0.0240404)
(0.0240241 -2.36463e-05 -0.00267574 2.51593e-06 -0.000336019 0.024041)
(0.024024 3.68542e-06 -0.00269445 2.17581e-06 -0.000390885 0.0240414)
(0.0240238 3.3141e-05 -0.00271701 2.25268e-06 -0.000458701 0.0240416)
(0.0240234 6.56238e-05 -0.00274434 3.22837e-06 -0.000546661 0.024041)
(0.0240228 0.00010249 -0.00277749 5.99908e-06 -0.000663806 0.0240389)
(0.0240219 0.000145364 -0.00281712 1.21084e-05 -0.000820528 0.0240337)
(0.0240207 0.000195991 -0.00286388 2.40563e-05 -0.00102782 0.0240233)
(0.024019 0.000255981 -0.00291805 4.5704e-05 -0.00129671 0.0240037)
(0.0240166 0.000326598 -0.00297996 8.27588e-05 -0.00163794 0.0239694)
(0.0240134 0.000408454 -0.00304912 0.000143424 -0.00206186 0.0239124)
(0.0240095 0.000501844 -0.00312122 0.000239905 -0.00257952 0.0238206)
(0.0238467 0.000600566 -0.00313808 0.000387296 -0.00318262 0.0235161)
(0.023656 0.000707422 -0.00314314 0.000607837 -0.00389045 0.0231111)
(0.0234718 0.00082094 -0.00314489 0.000930124 -0.00470953 0.0226112)
(0.0233103 0.000940147 -0.00314084 0.001391 -0.00563879 0.0219954)
(0.0231858 0.0010655 -0.00312477 0.00203436 -0.00666589 0.0212329)
(0.0230985 0.00119883 -0.0030848 0.00290595 -0.00775759 0.0202768)
(0.0230153 0.001341 -0.00300195 0.00404067 -0.00884599 0.0190574)
(0.0228398 0.00148462 -0.00285084 0.00543687 -0.00980985 0.0174787)
(0.0223766 0.00163597 -0.00260243 0.00701803 -0.0104576 0.0154248)
(0.0212461 0.00167995 -0.00214769 0.00853231 -0.0104759 0.0127561)
(0.0186296 0.00146657 -0.00146657 0.00932148 -0.00935022 0.00932147)
(0.013747 0.000979193 -0.000749326 0.00835928 -0.00672475 0.00538969)
(0.00749875 0.000416148 -0.000237927 0.00539207 -0.00337353 0.00210718)
(0.00268091 9.3342e-05 -3.78216e-05 0.00220645 -0.00102354 0.000474582)
(0.000575918 9.29808e-06 -2.51354e-06 0.000523363 -0.000165859 5.25593e-05)
(6.12384e-05 2.80439e-07 -1.02119e-07 5.92719e-05 -1.07959e-05 1.96654e-06)
(1.75683e-06 2.30553e-10 -5.28319e-09 1.75087e-06 -1.02297e-07 5.99363e-09)
(0.0240214 -2.46354e-05 -0.00219517 3.66197e-05 0.00021241 0.0239933)
(0.0240219 -6.43752e-05 -0.00221226 4.4168e-05 0.000541838 0.0239848)
(0.0240225 -8.50371e-05 -0.00223788 4.66606e-05 0.000674829 0.0239809)
(0.0240231 -9.18482e-05 -0.00226428 4.10342e-05 0.000649629 0.0239851)
(0.0240235 -9.41835e-05 -0.00228684 3.26071e-05 0.000551518 0.0239924)
(0.0240237 -9.7102e-05 -0.00230501 2.53348e-05 0.000441454 0.0239988)
(0.0240239 -0.000100859 -0.00232006 1.99796e-05 0.000342912 0.0240036)
(0.024024 -0.000103699 -0.00233319 1.61022e-05 0.000257947 0.0240071)
(0.0240241 -0.000104022 -0.00234508 1.32169e-05 0.000182599 0.0240096)
(0.0240241 -0.000100965 -0.00235606 1.10387e-05 0.000113809 0.0240116)
(0.0240242 -9.43056e-05 -0.00236635 9.39637e-06 5.05706e-05 0.024013)
(0.0240243 -8.40986e-05 -0.00237628 8.14837e-06 -7.21953e-06 0.0240141)
(0.0240245 -7.04371e-05 -0.0023863 7.15911e-06 -5.99152e-05 0.024015)
(0.0240246 -5.33533e-05 -0.00239687 6.31689e-06 -0.000108577 0.0240157)
(0.0240247 -3.29113e-05 -0.00240837 5.55715e-06 -0.000154805 0.0240164)
(0.0240249 -9.3126e-06 -0.00242111 4.85822e-06 -0.000200423 0.024017)
(0.0240249 1.72204e-05 -0.00243532 4.23996e-06 -0.000247306 0.0240176)
(0.024025 4.63668e-05 -0.00245113 3.75586e-06 -0.000296966 0.0240181)
(0.0240249 7.77655e-05 -0.00246885 3.4632e-06 -0.000350623 0.0240186)
(0.0240248 0.000111265 -0.00248901 3.43158e-06 -0.00040988 0.0240188)
(0.0240245 0.00014701 -0.00251251 3.78689e-06 -0.000477446 0.0240188)
(0.0240241 0.00018555 -0.00254049 4.79601e-06 -0.000557963 0.0240183)
(0.0240234 0.000227904 -0.00257428 7.01723e-06 -0.00065849 0.0240169)
(0.0240225 0.000275317 -0.00261517 1.14758e-05 -0.000788229 0.0240135)
(0.0240211 0.000329427 -0.00266472 1.99558e-05 -0.000958316 0.0240066)
(0.0240192 0.000391907 -0.00272395 3.53972e-05 -0.00118114 0.0239933)
(0.0240164 0.000464291 -0.00279379 6.2396e-05 -0.00146951 0.0239694)
(0.0240127 0.000547499 -0.00287437 0.000107808 -0.00183587 0.0239281)
(0.0240077 0.000641557 -0.00296538 0.000181448 -0.00229172 0.02386)
(0.0240013 0.000745123 -0.0030645 0.000296821 -0.00284681 0.0237515)
(0.0239936 0.000858618 -0.00316756 0.000471996 -0.00350807 0.0235849)
(0.0239853 0.000980658 -0.00326445 0.00073177 -0.00428406 0.0233348)
(0.0239769 0.00110731 -0.00334934 0.00110744 -0.0051772 0.0229688)
(0.0239694 0.00123604 -0.00341216 0.00163465 -0.00617575 0.0224503)
(0.0239642 0.00136504 -0.00343801 0.00235296 -0.00725581 0.0217381)
(0.0239626 0.00149669 -0.0034116 0.00330183 -0.00837745 0.0207912)
(0.023965 0.00163869 -0.00332339 0.00451433 -0.00948249 0.0195764)
(0.0239706 0.00180028 -0.00317515 0.00600956 -0.0104957 0.0180758)
(0.0239765 0.00197942 -0.00298232 0.00778252 -0.0113283 0.0162957)
(0.0239796 0.00223286 -0.00277701 0.00980515 -0.011893 0.0142739)
(0.0239573 0.00249794 -0.00249794 0.0120269 -0.0120862 0.0120269)
(0.0212461 0.00214769 -0.00167995 0.0127562 -0.0104759 0.00853231)
(0.0160218 0.00139301 -0.00081804 0.0112261 -0.00736419 0.00480266)
(0.00902633 0.000608493 -0.000251428 0.00718198 -0.00364709 0.001846)
(0.00335984 0.0001485 -3.86971e-05 0.00294522 -0.00110665 0.000415175)
(0.000747237 1.67599e-05 -2.12879e-06 0.000701014 -0.00018016 4.62671e-05)
(8.10082e-05 6.36926e-07 -6.07609e-08 7.92698e-05 -1.17431e-05 1.73902e-06)
(2.33195e-06 3.22698e-09 -6.05049e-09 2.32668e-06 -1.10938e-07 5.30391e-09)
(0.0240184 -2.70936e-05 -0.00204546 4.43505e-05 0.000251996 0.0239786)
(0.0240192 -6.85868e-05 -0.00206871 5.62396e-05 0.000646831 0.0239661)
(0.0240203 -8.40283e-05 -0.00210686 6.19096e-05 0.000814107 0.0239598)
(0.0240213 -7.95854e-05 -0.00214785 5.57892e-05 0.000792956 0.0239652)
(0.0240221 -6.81141e-05 -0.00218472 4.46944e-05 0.000679578 0.0239758)
(0.0240227 -5.74706e-05 -0.00221574 3.44668e-05 0.000546201 0.0239857)
(0.0240232 -4.9046e-05 -0.00224198 2.66356e-05 0.000423104 0.0239933)
(0.0240235 -4.10518e-05 -0.0022648 2.08396e-05 0.000314984 0.0239989)
(0.0240238 -3.14668e-05 -0.00228513 1.64934e-05 0.000218386 0.0240031)
(0.0240241 -1.90306e-05 -0.00230353 1.32198e-05 0.000130101 0.0240062)
(0.0240242 -3.28823e-06 -0.00232044 1.07794e-05 4.89041e-05 0.0240085)
(0.0240244 1.58164e-05 -0.00233643 8.97301e-06 -2.55094e-05 0.0240102)
(0.0240245 3.82355e-05 -0.00235218 7.61637e-06 -9.37389e-05 0.0240114)
(0.0240246 6.39713e-05 -0.00236839 6.56664e-06 -0.000157175 0.0240124)
(0.0240246 9.29817e-05 -0.00238554 5.75287e-06 -0.000217807 0.0240132)
(0.0240245 0.000125077 -0.00240402 5.16486e-06 -0.000277891 0.0240139)