/*--------------------------------*- C++ -*----------------------------------*\
| =========                 |                                                 |
| \\      /  F ield         | OpenFOAM: The Open Source CFD Toolbox           |
|  \\    /   O peration     | Version:  2506                                  |
|   \\  /    A nd           | Website:  www.openfoam.com                      |
|    \\/     M anipulation  |                                                 |
\*---------------------------------------------------------------------------*/
FoamFile
{
    version     2.0;
    format      ascii;
    arch        "LSB;label=32;scalar=64";
    class       volSymmTensorField;
    location    "2137";
    object      Tij4;
}
// * * * * * * * * * * * * * * * * * * * * * * * * * * * * * * * * * * * * * //

dimensions      [0 0 0 0 0 0 0];

internalField   nonuniform List<symmTensor> 
2304
(
(-8.10081e-06 3.06151e-08 -1.23879e-11 -1.17029e-10 -3.27787e-09 -8.10093e-06)
(-8.31555e-06 8.5845e-08 -8.65548e-11 -8.94669e-10 -8.3843e-09 -8.31643e-06)
(-8.63351e-06 1.27902e-07 -1.54471e-10 -1.9074e-09 -1.0427e-08 -8.63539e-06)
(-8.94957e-06 1.57336e-07 -1.7479e-10 -2.77707e-09 -9.94238e-09 -8.95233e-06)
(-9.21175e-06 1.77814e-07 -1.60623e-10 -3.43984e-09 -8.32119e-09 -9.21518e-06)
(-9.4126e-06 1.9316e-07 -1.35106e-10 -3.96854e-09 -6.58366e-09 -9.41656e-06)
(-9.56225e-06 2.05666e-07 -1.09495e-10 -4.42622e-09 -5.09084e-09 -9.56667e-06)
(-9.67187e-06 2.1645e-07 -8.5773e-11 -4.84552e-09 -3.83269e-09 -9.67671e-06)
(-9.749e-06 2.25982e-07 -6.28783e-11 -5.23904e-09 -2.71261e-09 -9.75424e-06)
(-9.7984e-06 2.34562e-07 -4.00439e-11 -5.61544e-09 -1.67276e-09 -9.80402e-06)
(-9.82381e-06 2.42463e-07 -1.74258e-11 -5.98431e-09 -7.06035e-10 -9.82979e-06)
(-9.82889e-06 2.49946e-07 4.42688e-12 -6.35605e-09 1.74083e-10 -9.83524e-06)
(-9.81724e-06 2.57217e-07 2.51723e-11 -6.73931e-09 9.60756e-10 -9.82397e-06)
(-9.79208e-06 2.64397e-07 4.49232e-11 -7.1393e-09 1.66376e-09 -9.79922e-06)
(-9.75598e-06 2.71512e-07 6.41601e-11 -7.55678e-09 2.30541e-09 -9.76354e-06)
(-9.71077e-06 2.78499e-07 8.353e-11 -7.98804e-09 2.91255e-09 -9.71876e-06)
(-9.65766e-06 2.85205e-07 1.03669e-10 -8.42383e-09 3.51044e-09 -9.66608e-06)
(-9.59738e-06 2.91422e-07 1.24786e-10 -8.85074e-09 4.10957e-09 -9.60623e-06)
(-9.53065e-06 2.96915e-07 1.46527e-10 -9.25231e-09 4.70337e-09 -9.5399e-06)
(-9.45831e-06 3.01431e-07 1.68319e-10 -9.60937e-09 5.28152e-09 -9.46791e-06)
(-9.38124e-06 3.0471e-07 1.89963e-10 -9.90086e-09 5.84847e-09 -9.39114e-06)
(-9.30005e-06 3.06473e-07 2.12373e-10 -1.0104e-08 6.44454e-09 -9.31014e-06)
(-9.21449e-06 3.0642e-07 2.38072e-10 -1.01953e-08 7.15915e-09 -9.22467e-06)
(-9.12299e-06 3.04248e-07 2.71226e-10 -1.01538e-08 8.13283e-09 -9.13313e-06)
(-9.02233e-06 2.99635e-07 3.16928e-10 -9.96112e-09 9.54301e-09 -9.03227e-06)
(-8.90765e-06 2.92262e-07 3.79974e-10 -9.60426e-09 1.1581e-08 -8.91723e-06)
(-8.77281e-06 2.81875e-07 4.63688e-10 -9.08056e-09 1.44314e-08 -8.78184e-06)
(-8.61076e-06 2.68344e-07 5.68482e-10 -8.40129e-09 1.82417e-08 -8.61909e-06)
(-8.41442e-06 2.51716e-07 6.90788e-10 -7.59346e-09 2.30916e-08 -8.42189e-06)
(-8.17741e-06 2.32212e-07 8.2325e-10 -6.69692e-09 2.89906e-08 -8.1839e-06)
(-7.89464e-06 2.10162e-07 9.56984e-10 -5.75848e-09 3.5948e-08 -7.90007e-06)
(-7.56166e-06 1.85554e-07 1.08328e-09 -4.81114e-09 4.41441e-08 -7.56596e-06)
(-7.17241e-06 1.58479e-07 1.18711e-09 -3.90432e-09 5.37228e-08 -7.17551e-06)
(-6.72216e-06 1.29652e-07 1.24531e-09 -3.12096e-09 6.45604e-08 -6.72404e-06)
(-6.20882e-06 1.0014e-07 1.23115e-09 -2.55368e-09 7.63215e-08 -6.2095e-06)
(-5.63403e-06 7.13597e-08 1.11965e-09 -2.29071e-09 8.83772e-08 -5.63354e-06)
(-5.00488e-06 4.50541e-08 8.97887e-10 -2.39273e-09 9.97031e-08 -5.0033e-06)
(-4.33564e-06 2.31036e-08 5.80691e-10 -2.86043e-09 1.08904e-07 -4.33303e-06)
(-3.64827e-06 7.09582e-09 2.22863e-10 -3.60906e-09 1.1447e-07 -3.64469e-06)
(-2.97063e-06 -2.25988e-09 -8.78046e-11 -4.47944e-09 1.15246e-07 -2.96615e-06)
(-2.33195e-06 -5.58599e-09 -2.66333e-10 -5.30252e-09 1.10932e-07 -2.32668e-06)
(-1.75684e-06 -4.9571e-09 -2.89618e-10 -5.99053e-09 1.02294e-07 -1.75087e-06)
(-1.26034e-06 -2.9439e-09 -2.1292e-10 -6.56548e-09 9.06808e-08 -1.25379e-06)
(-8.48251e-07 -1.24669e-09 -1.1455e-10 -7.10325e-09 7.72874e-08 -8.41152e-07)
(-5.20587e-07 -3.49456e-10 -4.27968e-11 -7.69274e-09 6.28128e-08 -5.12895e-07)
(-2.75012e-07 -4.45974e-11 -7.94473e-12 -8.45909e-09 4.74847e-08 -2.66553e-07)
(-1.09396e-07 4.00468e-12 1.24807e-12 -9.68476e-09 3.10754e-08 -9.97116e-08)
(-2.46273e-08 3.48264e-17 3.48265e-17 -1.23136e-08 1.23136e-08 -1.23136e-08)
(-0.000277096 8.45808e-07 -1.05385e-09 -3.01192e-09 -3.45251e-07 -0.000277098)
(-0.000284426 2.39492e-06 -7.43541e-09 -2.29074e-08 -8.83037e-07 -0.000284443)
(-0.00029527 3.62816e-06 -1.34926e-08 -4.86654e-08 -1.09805e-06 -0.000295311)
(-0.000306039 4.5509e-06 -1.55691e-08 -7.1256e-08 -1.04698e-06 -0.000306103)
(-0.000314964 5.2387e-06 -1.45764e-08 -8.95728e-08 -8.76364e-07 -0.000315049)
(-0.000321798 5.77684e-06 -1.24505e-08 -1.052e-07 -6.93547e-07 -0.0003219)
(-0.00032689 6.22076e-06 -1.02088e-08 -1.19263e-07 -5.36452e-07 -0.000327008)
(-0.000330622 6.60086e-06 -8.06573e-09 -1.3228e-07 -4.03994e-07 -0.000330754)
(-0.00033325 6.93222e-06 -5.95003e-09 -1.44448e-07 -2.86034e-07 -0.000333394)
(-0.000334936 7.2248e-06 -3.80755e-09 -1.55937e-07 -1.76515e-07 -0.000335092)
(-0.000335806 7.48708e-06 -1.66568e-09 -1.66948e-07 -7.47079e-08 -0.000335973)
(-0.000335985 7.72668e-06 4.13228e-10 -1.77692e-07 1.79687e-08 -0.000336163)
(-0.000335595 7.94953e-06 2.38792e-09 -1.88338e-07 1.00808e-07 -0.000335784)
(-0.000334747 8.15926e-06 4.26217e-09 -1.98969e-07 1.74862e-07 -0.000334946)
(-0.000333527 8.35693e-06 6.07642e-09 -2.0957e-07 2.42511e-07 -0.000333736)
(-0.000331997 8.54131e-06 7.88828e-09 -2.20026e-07 3.06613e-07 -0.000332216)
(-0.000330197 8.70893e-06 9.75523e-09 -2.30112e-07 3.69867e-07 -0.000330427)
(-0.000328153 8.85497e-06 1.16949e-08 -2.39518e-07 4.33394e-07 -0.000328391)
(-0.000325886 8.97405e-06 1.36723e-08 -2.47879e-07 4.96499e-07 -0.000326132)
(-0.000323424 9.06051e-06 1.56337e-08 -2.54787e-07 5.58059e-07 -0.000323677)
(-0.000320799 9.1086e-06 1.7561e-08 -2.59819e-07 6.18483e-07 -0.000321056)
(-0.00031803 9.11225e-06 1.95392e-08 -2.62549e-07 6.81941e-07 -0.000318289)
(-0.000315112 9.06479e-06 2.17985e-08 -2.6259e-07 7.57759e-07 -0.000315371)
(-0.000311975 8.95843e-06 2.47159e-08 -2.5962e-07 8.60716e-07 -0.000312229)
(-0.000308518 8.78576e-06 2.87492e-08 -2.53501e-07 1.00954e-06 -0.000308765)
(-0.000304588 8.53994e-06 3.43284e-08 -2.44365e-07 1.22435e-06 -0.000304823)
(-0.000299979 8.21552e-06 4.17564e-08 -2.32754e-07 1.52464e-06 -0.000300196)
(-0.000294453 7.80986e-06 5.10879e-08 -2.19751e-07 1.92607e-06 -0.000294648)
(-0.00028777 7.32398e-06 6.20341e-08 -2.07058e-07 2.43724e-06 -0.000287936)
(-0.000279712 6.76255e-06 7.397e-08 -1.96978e-07 3.05918e-06 -0.000279843)
(-0.000270106 6.13316e-06 8.61354e-08 -1.92555e-07 3.79269e-06 -0.000270192)
(-0.000258809 5.44259e-06 9.79645e-08 -1.98315e-07 4.65695e-06 -0.000258839)
(-0.000245614 4.70113e-06 1.08533e-07 -2.2087e-07 5.66738e-06 -0.000245573)
(-0.000230366 3.92724e-06 1.16222e-07 -2.68585e-07 6.81142e-06 -0.000230231)
(-0.000212993 3.14634e-06 1.19159e-07 -3.51603e-07 8.05496e-06 -0.000212735)
(-0.000193542 2.39066e-06 1.15557e-07 -4.80744e-07 9.33339e-06 -0.00019312)
(-0.000172232 1.69737e-06 1.04263e-07 -6.64203e-07 1.05397e-05 -0.000171601)
(-0.000149514 1.10386e-06 8.56053e-08 -9.02029e-07 1.15257e-05 -0.000148628)
(-0.000126102 6.39439e-07 6.20725e-08 -1.18047e-06 1.21269e-05 -0.000124928)
(-0.000102928 3.16272e-07 3.80704e-08 -1.47106e-06 1.22127e-05 -0.000101459)
(-8.10083e-05 1.24094e-07 1.83837e-08 -1.73985e-06 1.17431e-05 -7.92688e-05)
(-6.12384e-05 3.11421e-08 5.67214e-09 -1.96632e-06 1.07957e-05 -5.92721e-05)
(-4.42261e-05 -1.57739e-09 -3.57043e-10 -2.15548e-06 9.52272e-06 -4.20706e-05)
(-3.01997e-05 -6.46975e-09 -1.86934e-09 -2.32692e-06 8.05342e-06 -2.78728e-05)
(-1.90949e-05 -3.47486e-09 -1.34638e-09 -2.49249e-06 6.43283e-06 -1.66024e-05)
(-1.04558e-05 -8.09535e-10 -4.59689e-10 -2.5494e-06 4.48962e-06 -7.90643e-06)
(-3.24949e-06 1.00469e-14 1.00469e-14 -1.62475e-06 1.62475e-06 -1.62475e-06)
(-1.09396e-07 -1.24787e-12 -4.00404e-12 -9.97115e-08 3.10754e-08 -9.68474e-09)
(-0.00233441 5.30596e-06 -1.13764e-08 -2.27915e-08 -5.00514e-06 -0.00233442)
(-0.00238894 1.52424e-05 -8.1509e-08 -1.65568e-07 -1.27745e-05 -0.00238896)
(-0.00246942 2.36645e-05 -1.51804e-07 -3.28399e-07 -1.58403e-05 -0.00246955)
(-0.0025493 3.05202e-05 -1.80424e-07 -4.54488e-07 -1.507e-05 -0.00254958)
(-0.00261568 3.6035e-05 -1.73584e-07 -5.57144e-07 -1.25996e-05 -0.00261611)
(-0.00266669 4.05394e-05 -1.51525e-07 -6.5355e-07 -9.96716e-06 -0.00266727)
(-0.00270482 4.42979e-05 -1.26251e-07 -7.4746e-07 -7.70876e-06 -0.00270552)
(-0.0027328 4.74943e-05 -1.00901e-07 -8.3776e-07 -5.80573e-06 -0.00273361)
(-0.00275252 5.0244e-05 -7.5074e-08 -9.23291e-07 -4.11278e-06 -0.00275344)
(-0.00276522 5.26277e-05 -4.8402e-08 -1.00395e-06 -2.54319e-06 -0.00276622)
(-0.00277187 5.47082e-05 -2.14311e-08 -1.0802e-06 -1.08584e-06 -0.00277295)
(-0.00277341 5.65372e-05 4.89622e-09 -1.15256e-06 2.40182e-07 -0.00277456)
(-0.00277074 5.81534e-05 2.99292e-08 -1.22128e-06 1.42599e-06 -0.00277196)
(-0.00276466 5.95815e-05 5.36146e-08 -1.28629e-06 2.48779e-06 -0.00276594)
(-0.00275579 6.08312e-05 7.63917e-08 -1.34713e-06 3.46071e-06 -0.00275713)
(-0.00274456 6.18996e-05 9.89393e-08 -1.40307e-06 4.38685e-06 -0.00274595)
(-0.00273122 6.27726e-05 1.2195e-07 -1.45304e-06 5.30601e-06 -0.00273265)
(-0.00271591 6.34302e-05 1.45624e-07 -1.49574e-06 6.23521e-06 -0.00271738)
(-0.00269875 6.38507e-05 1.69514e-07 -1.5297e-06 7.16475e-06 -0.00270024)
(-0.0026799 6.40125e-05 1.92954e-07 -1.55337e-06 8.07801e-06 -0.00268141)
(-0.00265954 6.38945e-05 2.15728e-07 -1.56537e-06 8.97937e-06 -0.00266105)
(-0.00263779 6.34758e-05 2.38865e-07 -1.56485e-06 9.92609e-06 -0.00263928)
(-0.00261459 6.27323e-05 2.65119e-07 -1.55187e-06 1.10496e-05 -0.00261605)
(-0.00259015 6.16443e-05 2.99054e-07 -1.52809e-06 1.25653e-05 -0.00259156)
(-0.00256336 6.01699e-05 3.46037e-07 -1.49719e-06 1.47414e-05 -0.00256469)
(-0.00253293 5.8281e-05 4.11139e-07 -1.46712e-06 1.78675e-05 -0.00253415)
(-0.00249732 5.59585e-05 4.98136e-07 -1.45187e-06 2.22291e-05 -0.00249837)
(-0.00245473 5.31937e-05 6.08185e-07 -1.4737e-06 2.80623e-05 -0.00245557)
(-0.00240331 4.99869e-05 7.38747e-07 -1.56471e-06 3.55103e-05 -0.00240383)
(-0.00234128 4.63466e-05 8.83417e-07 -1.76812e-06 4.46112e-05 -0.00234135)
(-0.00226718 4.23046e-05 1.03425e-06 -2.14411e-06 5.5394e-05 -0.00226662)
(-0.00217985 3.79704e-05 1.18832e-06 -2.79499e-06 6.81538e-05 -0.00217838)
(-0.00207757 3.34819e-05 1.34207e-06 -3.87311e-06 8.31427e-05 -0.00207478)
(-0.001959 2.89332e-05 1.48424e-06 -5.57014e-06 0.00010023 -0.00195428)
(-0.00182331 2.44303e-05 1.60128e-06 -8.12839e-06 0.000118997 -0.00181584)
(-0.00167041 2.00952e-05 1.67883e-06 -1.18213e-05 0.000138585 -0.00165908)
(-0.00150132 1.60434e-05 1.7018e-06 -1.68781e-05 0.000157481 -0.00148479)
(-0.00131872 1.23595e-05 1.65494e-06 -2.33452e-05 0.000173467 -0.00129561)
(-0.00112732 9.08335e-06 1.52359e-06 -3.09241e-05 0.000183915 -0.00109655)
(-0.000934004 6.22605e-06 1.2972e-06 -3.89013e-05 0.000186503 -0.000895189)
(-0.000747237 3.82386e-06 9.82904e-07 -4.63325e-05 0.000180169 -0.000700946)
(-0.000575918 1.97244e-06 6.2511e-07 -5.25727e-05 0.000165862 -0.00052336)
(-0.000425487 7.88099e-07 3.11334e-07 -5.74395e-05 0.000145396 -0.000368051)
(-0.000296613 2.16039e-07 1.09288e-07 -6.0439e-05 0.000119474 -0.000236174)
(-0.000182755 2.756e-08 1.8756e-08 -5.78499e-05 8.50043e-05 -0.000124905)
(-7.54771e-05 2.732e-13 2.732e-13 -3.77386e-05 3.77386e-05 -3.77386e-05)
(-1.04558e-05 4.5974e-10 8.09626e-10 -7.90643e-06 4.48961e-06 -2.5494e-06)
(-2.75012e-07 7.94512e-12 4.45996e-11 -2.66553e-07 4.74846e-08 -8.45907e-09)
(-0.00834764 1.2262e-05 -3.83307e-08 -9.95819e-08 -2.60942e-05 -0.00834757)
(-0.00849143 3.63188e-05 -2.83837e-07 -6.73948e-07 -6.6358e-05 -0.00849107)
(-0.00870227 5.91109e-05 -5.56272e-07 -1.17216e-06 -8.18868e-05 -0.0087019)
(-0.00891015 7.9961e-05 -6.9646e-07 -1.39354e-06 -7.76014e-05 -0.00891019)
(-0.00908214 9.81756e-05 -6.99692e-07 -1.5226e-06 -6.47247e-05 -0.00908274)
(-0.00921393 0.000113624 -6.30465e-07 -1.68489e-06 -5.11239e-05 -0.00921505)
(-0.00931209 0.00012659 -5.36815e-07 -1.88837e-06 -3.94878e-05 -0.00931365)
(-0.00938383 0.000137507 -4.35263e-07 -2.10902e-06 -2.97032e-05 -0.00938575)
(-0.00943423 0.000146751 -3.27129e-07 -2.32963e-06 -2.10301e-05 -0.00943646)
(-0.00946665 0.0001546 -2.12683e-07 -2.54271e-06 -1.30232e-05 -0.00946915)
(-0.00948374 0.000161251 -9.54298e-08 -2.74505e-06 -5.61256e-06 -0.00948648)
(-0.00948797 0.000166841 1.97119e-08 -2.93393e-06 1.12099e-06 -0.0094909)
(-0.00948165 0.000171469 1.29242e-07 -3.10627e-06 7.14668e-06 -0.00948475)
(-0.00946679 0.000175198 2.324e-07 -3.25899e-06 1.25576e-05 -0.00947001)
(-0.00944491 0.000178065 3.30701e-07 -3.38964e-06 1.7541e-05 -0.00944823)
(-0.00941706 0.000180083 4.2682e-07 -3.49667e-06 2.23195e-05 -0.00942045)
(-0.00938385 0.000181259 5.23578e-07 -3.57953e-06 2.71056e-05 -0.00938728)
(-0.00934554 0.000181596 6.21767e-07 -3.63826e-06 3.19978e-05 -0.00934896)
(-0.00930227 0.000181105 7.19568e-07 -3.67284e-06 3.69592e-05 -0.00930565)
(-0.00925426 0.000179803 8.14403e-07 -3.68334e-06 4.19156e-05 -0.00925756)
(-0.00920169 0.000177709 9.05696e-07 -3.67111e-06 4.68954e-05 -0.00920488)
(-0.00914462 0.000174852 9.97958e-07 -3.64129e-06 5.21907e-05 -0.00914766)
(-0.00908281 0.000171254 1.10271e-06 -3.60564e-06 5.84823e-05 -0.00908567)
(-0.00901767 0.000166921 1.23781e-06 -3.58581e-06 6.6867e-05 -0.00902026)
(-0.0089454 0.00016179 1.42373e-06 -3.61908e-06 7.8712e-05 -0.00894763)
(-0.00886264 0.000155871 1.68052e-06 -3.77177e-06 9.55411e-05 -0.00886435)
(-0.00876536 0.000149179 2.02373e-06 -4.15217e-06 0.000118887 -0.00876629)
(-0.00864875 0.000141726 2.46033e-06 -4.92877e-06 0.000150095 -0.00864847)
(-0.00850755 0.000133489 2.98488e-06 -6.34714e-06 0.000190137 -0.0085054)
(-0.00833634 0.000124373 3.57691e-06 -8.74645e-06 0.00023955 -0.00833131)
(-0.00813006 0.000114309 4.20718e-06 -1.26078e-05 0.000298826 -0.00812067)
(-0.00788431 0.000103934 4.88452e-06 -1.87484e-05 0.000369716 -0.00786831)
(-0.00759362 9.41092e-05 5.64537e-06 -2.83982e-05 0.000453889 -0.00756756)
(-0.00725304 8.49929e-05 6.49889e-06 -4.31618e-05 0.000551372 -0.00721188)
(-0.00685834 7.66804e-05 7.45918e-06 -6.51554e-05 0.0006609 -0.00679491)
(-0.00640621 6.92193e-05 8.54506e-06 -9.69225e-05 0.00077897 -0.00631081)
(-0.005895 6.24233e-05 9.74467e-06 -0.000140916 0.000898353 -0.00575543)
(-0.00532589 5.57105e-05 1.0941e-05 -0.000198392 0.00100711 -0.00512871)
(-0.00470459 4.81004e-05 1.18062e-05 -0.000267844 0.00108912 -0.00443779)
(-0.00404289 3.85588e-05 1.17448e-05 -0.000343649 0.00112689 -0.00370004)
(-0.00335985 2.68911e-05 1.01081e-05 -0.000416197 0.00110658 -0.00294414)
(-0.00268091 1.47758e-05 6.85489e-06 -0.000474915 0.00102347 -0.00220619)
(-0.00201791 5.66254e-06 3.27902e-06 -0.000506755 0.00087508 -0.0015112)
(-0.00135147 1.17888e-06 8.75373e-07 -0.000480327 0.000646865 -0.000871149)
(-0.000679201 1.90787e-12 1.90787e-12 -0.000339601 0.000339601 -0.0003396)
(-0.000182755 -1.87549e-08 -2.75585e-08 -0.000124905 8.50043e-05 -5.78498e-05)
(-1.90949e-05 1.34645e-09 3.47505e-09 -1.66024e-05 6.43282e-06 -2.49248e-06)
(-5.20587e-07 4.27975e-11 3.49461e-10 -5.12895e-07 6.28127e-08 -7.69273e-09)
(-0.0162686 1.17108e-05 -4.98298e-08 -3.0297e-07 -6.92218e-05 -0.0162683)
(-0.0164327 3.78899e-05 -4.04612e-07 -1.96103e-06 -0.000175459 -0.0164309)
(-0.0166723 6.91195e-05 -8.94204e-07 -3.07654e-06 -0.000215655 -0.0166698)
(-0.0169077 0.000102836 -1.23973e-06 -3.08242e-06 -0.000203798 -0.0169059)
(-0.017102 0.000134958 -1.3395e-06 -2.74968e-06 -0.000169725 -0.0171014)
(-0.0172503 0.000163077 -1.26575e-06 -2.5809e-06 -0.000133883 -0.0172508)
(-0.01736 0.000186701 -1.10994e-06 -2.62152e-06 -0.000103202 -0.0173614)
(-0.0174394 0.000206301 -9.15854e-07 -2.7842e-06 -7.74191e-05 -0.0174415)
(-0.0174947 0.000222531 -6.95312e-07 -3.0014e-06 -5.46628e-05 -0.0174974)
(-0.0175301 0.000235903 -4.54513e-07 -3.23964e-06 -3.37751e-05 -0.0175332)
(-0.0175488 0.000246743 -2.04285e-07 -3.48133e-06 -1.45291e-05 -0.0175522)
(-0.0175536 0.000255246 4.25534e-08 -3.712e-06 2.92646e-06 -0.0175573)
(-0.0175473 0.000261535 2.76641e-07 -3.91772e-06 1.85607e-05 -0.0175512)
(-0.017532 0.000265693 4.94737e-07 -4.0873e-06 3.26456e-05 -0.017536)
(-0.0175095 0.000267782 6.98678e-07 -4.21455e-06 4.56843e-05 -0.0175135)
(-0.0174811 0.000267872 8.92947e-07 -4.29904e-06 5.82723e-05 -0.017485)
(-0.0174475 0.000266068 1.08249e-06 -4.34629e-06 7.09839e-05 -0.0174513)
(-0.017409 0.000262512 1.26852e-06 -4.36503e-06 8.41226e-05 -0.0174125)
(-0.0173655 0.000257377 1.44765e-06 -4.36411e-06 9.76714e-05 -0.0173688)
(-0.0173168 0.000250849 1.61577e-06 -4.35235e-06 0.000111536 -0.0173197)
(-0.0172626 0.00024311 1.77309e-06 -4.34212e-06 0.000125895 -0.0172651)
(-0.017202 0.000234335 1.9293e-06 -4.35839e-06 0.000141616 -0.017204)
(-0.0171348 0.000224671 2.10517e-06 -4.4504e-06 0.00016054 -0.0171362)
(-0.0170621 0.000214186 2.32859e-06 -4.70551e-06 0.000185474 -0.0170628)
(-0.0169789 0.000202896 2.62934e-06 -5.2759e-06 0.000219994 -0.0169785)
(-0.0168811 0.00019091 3.03376e-06 -6.42139e-06 0.000268191 -0.016879)
(-0.016764 0.00017834 3.55734e-06 -8.56539e-06 0.000334258 -0.0167593)
(-0.016622 0.000165275 4.19974e-06 -1.23703e-05 0.000422102 -0.0166129)
(-0.0164484 0.000151673 4.93871e-06 -1.88212e-05 0.000535019 -0.0164324)
(-0.0162362 0.000137093 5.71508e-06 -2.93267e-05 0.000675672 -0.0162092)
(-0.0159774 0.000120516 6.40613e-06 -4.59291e-05 0.000846899 -0.0159333)
(-0.0156623 0.000104018 7.02974e-06 -7.19035e-05 0.00105368 -0.0155918)
(-0.0152858 9.10895e-05 7.8105e-06 -0.000112112 0.00130112 -0.0151747)
(-0.0148417 8.18551e-05 8.88235e-06 -0.000173186 0.00159178 -0.0146695)
(-0.0143239 7.66407e-05 1.04961e-05 -0.000264128 0.00192557 -0.0140606)
(-0.0137256 7.59307e-05 1.30852e-05 -0.000396299 0.00229712 -0.0133301)
(-0.0130382 7.95682e-05 1.71913e-05 -0.000581999 0.00269137 -0.0124573)
(-0.01225 8.59036e-05 2.31608e-05 -0.000830773 0.00307895 -0.0114205)
(-0.0113421 9.10301e-05 3.04597e-05 -0.00114286 0.00341306 -0.0102009)
(-0.0102844 8.85194e-05 3.65626e-05 -0.00149976 0.00362882 -0.00878639)
(-0.00902633 7.15459e-05 3.63393e-05 -0.00185178 0.00364443 -0.00717598)
(-0.00749875 4.02731e-05 2.51933e-05 -0.00210941 0.00337155 -0.00538994)
(-0.00561109 1.2107e-05 9.44352e-06 -0.00212252 0.00272112 -0.00348865)
(-0.00337879 1.77818e-12 1.77818e-12 -0.0016894 0.0016894 -0.0016894)
(-0.00135147 -8.75367e-07 -1.17888e-06 -0.000871149 0.000646865 -0.000480327)
(-0.000296613 -1.09287e-07 -2.16036e-07 -0.000236174 0.000119474 -6.04389e-05)
(-3.01997e-05 1.86944e-09 6.47011e-09 -2.78728e-05 8.05341e-06 -2.32691e-06)
(-8.48251e-07 1.14551e-10 1.2467e-09 -8.41151e-07 7.72873e-08 -7.10324e-09)
(-0.0216979 2.5775e-06 -1.44386e-08 -6.81169e-07 -0.000121544 -0.0216973)
(-0.0218069 1.4866e-05 -2.09975e-07 -4.3598e-06 -0.000307951 -0.0218025)
(-0.0219693 4.1044e-05 -7.07672e-07 -6.60577e-06 -0.000378677 -0.0219628)
(-0.0221332 7.67398e-05 -1.24344e-06 -6.07567e-06 -0.000358539 -0.0221277)
(-0.0222724 0.000114158 -1.53434e-06 -4.60795e-06 -0.000299298 -0.0222689)
(-0.0223804 0.000148081 -1.56407e-06 -3.47642e-06 -0.000236362 -0.0223789)
(-0.0224606 0.000176706 -1.43199e-06 -2.86523e-06 -0.000182005 -0.0224606)
(-0.0225185 0.000200099 -1.20957e-06 -2.60094e-06 -0.000136116 -0.0225194)
(-0.0225586 0.000218896 -9.28359e-07 -2.52984e-06 -9.56712e-05 -0.0225603)
(-0.0225845 0.000233658 -6.07464e-07 -2.57008e-06 -5.87147e-05 -0.0225867)
(-0.0225989 0.00024472 -2.68413e-07 -2.67724e-06 -2.47867e-05 -0.0226015)
(-0.0226042 0.000252247 6.64857e-08 -2.81647e-06 5.95787e-06 -0.022607)
(-0.0226024 0.000256318 3.80474e-07 -2.95652e-06 3.35506e-05 -0.0226053)
(-0.0225955 0.000256992 6.65504e-07 -3.07446e-06 5.85128e-05 -0.0225983)
(-0.0225849 0.000254349 9.20584e-07 -3.16034e-06 8.17422e-05 -0.0225875)
(-0.022572 0.000248537 1.14837e-06 -3.21856e-06 0.000104292 -0.0225742)
(-0.0225574 0.000239824 1.35229e-06 -3.267e-06 0.000127189 -0.0225592)
(-0.0225414 0.000228575 1.53187e-06 -3.33029e-06 0.000151062 -0.0225427)
(-0.0225236 0.000215193 1.68236e-06 -3.43266e-06 0.000176076 -0.0225243)
(-0.0225027 0.000200058 1.79915e-06 -3.59854e-06 0.000202354 -0.0225027)
(-0.0224771 0.000183446 1.88176e-06 -3.86222e-06 0.000230543 -0.0224763)
(-0.022445 0.000165499 1.93571e-06 -4.29057e-06 0.000262485 -0.0224431)
(-0.0224057 0.000146292 1.96951e-06 -5.01565e-06 0.000301592 -0.0224026)
(-0.0223586 0.000125898 1.9869e-06 -6.2765e-06 0.000352773 -0.0223537)
(-0.0222993 0.000104331 1.97654e-06 -8.48887e-06 0.000422307 -0.0222918)
(-0.0222246 8.15718e-05 1.90005e-06 -1.23513e-05 0.000517399 -0.0222129)
(-0.0221313 5.76562e-05 1.68308e-06 -1.89936e-05 0.000645501 -0.0221126)
(-0.0220154 3.26394e-05 1.20815e-06 -3.01708e-05 0.000813786 -0.0219853)
(-0.0218727 6.43517e-06 3.03358e-07 -4.85005e-05 0.00102881 -0.0218242)
(-0.0216985 -2.18955e-05 -1.31323e-06 -7.77978e-05 0.00129675 -0.0216207)
(-0.0214886 -5.73915e-05 -4.36698e-06 -0.000123854 0.00162568 -0.021365)
(-0.0212388 -9.30457e-05 -8.94602e-06 -0.000194948 0.00202333 -0.0210447)
(-0.0209459 -0.000119798 -1.44885e-05 -0.000302646 0.00249669 -0.0206447)
(-0.0206104 -0.000139263 -2.11001e-05 -0.000463481 0.00305267 -0.0201488)
(-0.0202342 -0.000149937 -2.83494e-05 -0.000699546 0.00369373 -0.0195369)
(-0.0198191 -0.000148384 -3.48737e-05 -0.0010386 0.00441415 -0.0187829)
(-0.0193622 -0.000130799 -3.80496e-05 -0.00151162 0.00519304 -0.0178525)
(-0.0188451 -9.45756e-05 -3.38963e-05 -0.0021457 0.00598532 -0.0167005)
(-0.0182165 -4.10961e-05 -1.80634e-05 -0.00294963 0.00671047 -0.0152671)
(-0.0173603 1.80302e-05 9.68407e-06 -0.00388686 0.00723666 -0.0134735)
(-0.0160218 5.4018e-05 3.54042e-05 -0.00481462 0.00734552 -0.0112077)
(-0.013747 3.44421e-05 2.76761e-05 -0.00539385 0.00671231 -0.00835341)
(-0.0101287 -3.00305e-11 -3.00305e-11 -0.00506436 0.00506436 -0.00506436)
(-0.00561109 -9.44352e-06 -1.2107e-05 -0.00348865 0.00272112 -0.00212252)
(-0.00201791 -3.27901e-06 -5.66253e-06 -0.0015112 0.00087508 -0.000506754)
(-0.000425487 -3.11332e-07 -7.88095e-07 -0.000368051 0.000145396 -5.74394e-05)
(-4.4226e-05 3.57174e-10 1.57797e-09 -4.20706e-05 9.52271e-06 -2.15548e-06)
(-1.26034e-06 2.12921e-10 2.94391e-09 -1.25379e-06 9.06807e-08 -6.56546e-09)
(-0.0240237 -6.65713e-06 4.77601e-08 -1.23829e-06 -0.000172344 -0.0240225)
(-0.0240239 -1.08232e-05 1.96843e-07 -7.94876e-06 -0.000436784 -0.024016)
(-0.0240242 3.35878e-06 -7.52365e-08 -1.20487e-05 -0.00053787 -0.0240121)
(-0.0240243 3.1299e-05 -6.65584e-07 -1.09e-05 -0.000510653 -0.0240135)
(-0.0240243 6.38467e-05 -1.13636e-06 -7.77769e-06 -0.000427455 -0.0240168)
(-0.0240241 9.44026e-05 -1.328e-06 -5.12429e-06 -0.000337891 -0.0240198)
(-0.024024 0.000120248 -1.30008e-06 -3.40981e-06 -0.000259708 -0.0240218)
(-0.0240238 0.000140913 -1.13438e-06 -2.38338e-06 -0.000193385 -0.024023)
(-0.0240236 0.000156749 -8.81304e-07 -1.78218e-06 -0.000135066 -0.0240239)
(-0.0240235 0.00016814 -5.74462e-07 -1.45724e-06 -8.20771e-05 -0.0240244)
(-0.0240234 0.000175283 -2.45439e-07 -1.32604e-06 -3.36385e-05 -0.0240246)
(-0.0240233 0.00017822 7.58407e-08 -1.3265e-06 1.0223e-05 -0.0240246)
(-0.0240233 0.000176933 3.66014e-07 -1.40593e-06 4.96959e-05 -0.0240245)
(-0.0240234 0.000171422 6.10673e-07 -1.52808e-06 8.55798e-05 -0.0240243)
(-0.0240235 0.000161768 8.02322e-07 -1.68026e-06 0.000119147 -0.024024)
(-0.0240236 0.000148182 9.36793e-07 -1.87415e-06 0.000151869 -0.0240236)
(-0.0240238 0.000131068 1.01054e-06 -2.14313e-06 0.000185213 -0.0240231)
(-0.0240239 0.000110948 1.01711e-06 -2.53128e-06 0.00022022 -0.0240224)
(-0.024024 8.83175e-05 9.46689e-07 -3.08476e-06 0.000257487 -0.0240216)
(-0.0240241 6.35264e-05 7.87408e-07 -3.85839e-06 0.000297732 -0.0240205)
(-0.0240241 3.6661e-05 5.22764e-07 -4.93979e-06 0.000342499 -0.0240192)
(-0.024024 7.52143e-06 1.23671e-07 -6.49561e-06 0.000394907 -0.0240175)
(-0.0240238 -2.42353e-05 -4.64378e-07 -8.84158e-06 0.000460155 -0.024015)
(-0.0240234 -5.88606e-05 -1.33701e-06 -1.25332e-05 0.000545408 -0.0240111)
(-0.0240228 -9.66669e-05 -2.65637e-06 -1.85159e-05 0.000659639 -0.0240051)
(-0.0240219 -0.000138073 -4.67915e-06 -2.83512e-05 0.000813146 -0.0239952)
(-0.0240207 -0.000183373 -7.77616e-06 -4.45212e-05 0.0010168 -0.023979)
(-0.024019 -0.000232718 -1.24521e-05 -7.08319e-05 0.00128152 -0.0239527)
(-0.0240166 -0.000286067 -1.93598e-05 -0.000112918 0.00161794 -0.0239105)
(-0.0240134 -0.000342839 -2.92847e-05 -0.00017887 0.00203633 -0.0238444)
(-0.0240095 -0.000403168 -4.32752e-05 -0.000280321 0.00254778 -0.0237429)
(-0.0238467 -0.000461154 -6.19134e-05 -0.000431307 0.00314491 -0.0234335)
(-0.023656 -0.000516139 -8.62735e-05 -0.000654552 0.00384667 -0.0230246)
(-0.0234718 -0.000563403 -0.000116643 -0.00097882 0.00465972 -0.0225212)
(-0.0233103 -0.000594875 -0.000151754 -0.00144046 0.0055832 -0.0219022)
(-0.0231858 -0.000598816 -0.000187268 -0.00208253 0.00660492 -0.0211372)
(-0.0230985 -0.000561384 -0.000214144 -0.00294974 0.00769185 -0.02018)
(-0.0230153 -0.000471378 -0.000218304 -0.00407624 0.00877642 -0.0189625)
(-0.0228398 -0.000328657 -0.000184099 -0.00546117 0.00973825 -0.0173911)
(-0.0223766 -0.000158198 -0.000107021 -0.00702715 0.0103851 -0.0153527)
(-0.0212461 -2.87057e-05 -2.35097e-05 -0.00852962 0.0104147 -0.0127166)
(-0.0186296 -6.73389e-11 -6.73389e-11 -0.0093148 0.0093148 -0.0093148)
(-0.013747 -2.76762e-05 -3.44422e-05 -0.00835342 0.00671231 -0.00539385)
(-0.00749875 -2.51933e-05 -4.02731e-05 -0.00538994 0.00337155 -0.00210941)
(-0.00268091 -6.85488e-06 -1.47757e-05 -0.00220619 0.00102347 -0.000474914)
(-0.000575918 -6.25108e-07 -1.97244e-06 -0.00052336 0.000165862 -5.25726e-05)
(-6.12384e-05 -5.67198e-09 -3.11412e-08 -5.92721e-05 1.07957e-05 -1.96631e-06)
(-1.75683e-06 2.89619e-10 4.95713e-09 -1.75087e-06 1.02294e-07 -5.99052e-09)
(-0.0240214 -1.42658e-05 1.26153e-07 -1.8868e-06 -0.000212406 -0.0240195)
(-0.0240219 -3.31096e-05 7.46897e-07 -1.22636e-05 -0.000541618 -0.0240097)
(-0.0240225 -3.19446e-05 8.9691e-07 -1.8965e-05 -0.000673949 -0.0240036)
(-0.0240231 -1.48246e-05 3.99953e-07 -1.7482e-05 -0.000647647 -0.0240056)
(-0.0240235 8.91558e-06 -2.03512e-07 -1.25142e-05 -0.000548087 -0.024011)
(-0.0240237 3.21307e-05 -5.83883e-07 -7.97363e-06 -0.000436418 -0.0240158)
(-0.0240239 5.16124e-05 -7.22743e-07 -4.82086e-06 -0.000336347 -0.0240193)
(-0.024024 6.64879e-05 -6.92305e-07 -2.78842e-06 -0.000250122 -0.0240216)
(-0.0240241 7.67968e-05 -5.55907e-07 -1.50426e-06 -0.000173893 -0.024023)
(-0.0240241 8.26697e-05 -3.6013e-07 -7.40376e-07 -0.000104653 -0.024024)
(-0.0240242 8.40993e-05 -1.44936e-07 -3.65753e-07 -4.14031e-05 -0.0240245)
(-0.0240243 8.09655e-05 5.38178e-08 -2.8348e-07 1.5969e-05 -0.0240246)
(-0.0240245 7.31484e-05 2.0653e-07 -4.14237e-07 6.78312e-05 -0.0240245)
(-0.0240246 6.06152e-05 2.9081e-07 -7.0591e-07 0.000115259 -0.0240242)
(-0.0240247 4.34706e-05 2.89292e-07 -1.14261e-06 0.000159875 -0.0240238)
(-0.0240249 2.19895e-05 1.86314e-07 -1.74474e-06 0.000203545 -0.0240232)
(-0.0240249 -3.35514e-06 -3.4663e-08 -2.56452e-06 0.000248183 -0.0240224)
(-0.024025 -3.2053e-05 -3.94101e-07 -3.67419e-06 0.00029535 -0.0240214)
(-0.0240249 -6.37779e-05 -9.19535e-07 -5.16242e-06 0.000346314 -0.0240201)
(-0.0240248 -9.85255e-05 -1.65196e-06 -7.15629e-06 0.000402707 -0.0240184)
(-0.0240245 -0.000136676 -2.65918e-06 -9.86864e-06 0.000467246 -0.0240162)
(-0.0240241 -0.00017891 -4.05745e-06 -1.36829e-05 0.000544556 -0.0240131)
(-0.0240234 -0.000226024 -6.04125e-06 -1.92783e-05 0.00064165 -0.0240084)
(-0.0240225 -0.000278687 -8.91492e-06 -2.77935e-05 0.000767672 -0.0240012)
(-0.0240211 -0.000337424 -1.3135e-05 -4.10921e-05 0.000933665 -0.0239895)
(-0.0240192 -0.000402557 -1.93505e-05 -6.21337e-05 0.00115192 -0.0239706)
(-0.0240164 -0.000474014 -2.84269e-05 -9.54539e-05 0.00143512 -0.0239398)
(-0.0240127 -0.000551142 -4.14469e-05 -0.000147757 0.00179565 -0.0238904)
(-0.0240077 -0.000632349 -5.96574e-05 -0.000228599 0.00224496 -0.0238127)
(-0.0240013 -0.000713938 -8.42345e-05 -0.000351058 0.00279293 -0.0236933)
(-0.0239936 -0.000786792 -0.000115443 -0.000532023 0.00344632 -0.0235143)
(-0.0239853 -0.000854145 -0.000155006 -0.000796144 0.00421395 -0.023252)
(-0.0239769 -0.000918263 -0.000205004 -0.00117522 0.00509875 -0.0228755)
(-0.0239694 -0.000962783 -0.000262823 -0.00170386 0.00608944 -0.0223486)
(-0.0239642 -0.000970603 -0.000322049 -0.00242028 0.0071628 -0.0216312)
(-0.0239626 -0.000925184 -0.000371094 -0.00336237 0.00827943 -0.0206831)
(-0.023965 -0.000815102 -0.000393401 -0.00456193 0.00938122 -0.0194715)
(-0.0239706 -0.000641087 -0.000371066 -0.00603821 0.0103926 -0.0179781)
(-0.0239765 -0.000418823 -0.000290235 -0.00778936 0.0112248 -0.0162088)
(-0.0239796 -0.000171918 -0.000142698 -0.00978385 0.0117847 -0.0141999)
(-0.0239573 6.41977e-11 6.41977e-11 -0.0119787 0.0119787 -0.0119787)
(-0.0212461 2.35096e-05 2.87055e-05 -0.0127166 0.0104147 -0.00852961)
(-0.0160218 -3.54043e-05 -5.40182e-05 -0.0112077 0.00734551 -0.00481461)
(-0.00902633 -3.63393e-05 -7.15459e-05 -0.00717598 0.00364443 -0.00185178)
(-0.00335984 -1.01081e-05 -2.68911e-05 -0.00294414 0.00110658 -0.000416197)
(-0.000747237 -9.82901e-07 -3.82385e-06 -0.000700946 0.000180169 -4.63325e-05)
(-8.10082e-05 -1.83835e-08 -1.24093e-07 -7.92688e-05 1.17431e-05 -1.73984e-06)
(-2.33195e-06 2.66335e-10 5.58603e-09 -2.32667e-06 1.10932e-07 -5.30251e-09)
(-0.0240184 -2.22061e-05 2.33255e-07 -2.67035e-06 -0.000252265 -0.0240158)
(-0.0240192 -5.58765e-05 1.50753e-06 -1.76011e-05 -0.000647559 -0.0240018)
(-0.0240203 -6.71175e-05 2.2803e-06 -2.78818e-05 -0.000815139 -0.0239928)
(-0.0240213 -6.01825e-05 1.99162e-06 -2.6429e-05 -0.000794067 -0.0239952)
(-0.0240221 -4.52718e-05 1.28339e-06 -1.93749e-05 -0.000680443 -0.0240029)