/*--------------------------------*- C++ -*----------------------------------*\
| =========                 |                                                 |
| \\      /  F ield         | OpenFOAM: The Open Source CFD Toolbox           |
|  \\    /   O peration     | Version:  2506                                  |
|   \\  /    A nd           | Website:  www.openfoam.com                      |
|    \\/     M anipulation  |                                                 |
\*---------------------------------------------------------------------------*/
FoamFile
{
    version     2.0;
    format      ascii;
    arch        "LSB;label=32;scalar=64";
    class       volSymmTensorField;
    location    "2137";
    object      Tij5;
}
// * * * * * * * * * * * * * * * * * * * * * * * * * * * * * * * * * * * * * //

dimensions      [0 0 0 0 0 0 0];

internalField   nonuniform List<symmTensor> 
2304
(
(4.71016e-11 -9.58593e-14 2.43489e-14 9.85976e-17 4.81918e-14 -4.71016e-11)
(3.75837e-11 -2.02361e-13 1.65388e-14 4.48748e-16 1.17773e-13 -3.75842e-11)
(2.46743e-11 -1.76582e-13 8.57497e-15 1.65914e-16 1.29558e-13 -2.46745e-11)
(1.36525e-11 -9.19991e-14 3.78905e-15 -7.55531e-16 9.55392e-14 -1.36517e-11)
(6.73969e-12 -1.75624e-14 1.53564e-15 -1.73442e-15 5.16154e-14 -6.73796e-12)
(3.10474e-12 3.16004e-14 5.51006e-16 -2.57258e-15 2.17055e-14 -3.10216e-12)
(1.32744e-12 6.17504e-14 1.43136e-16 -3.26274e-15 6.79998e-15 -1.32418e-12)
(4.16575e-13 8.15993e-14 -1.37815e-17 -3.86036e-15 6.14851e-16 -4.12714e-13)
(7.6539e-15 9.40498e-14 -1.06795e-16 -4.3662e-15 -3.46542e-15 -3.2877e-15)
(4.00244e-14 9.92715e-14 -2.15297e-16 -4.77865e-15 -8.27783e-15 -3.52458e-14)
(5.40022e-13 9.62962e-14 -3.51279e-16 -5.08438e-15 -1.40708e-14 -5.34937e-13)
(1.46682e-12 8.53693e-14 -4.85731e-16 -5.28968e-15 -1.98028e-14 -1.46153e-12)
(2.73053e-12 6.73228e-14 -5.77962e-16 -5.39741e-15 -2.43357e-14 -2.72513e-12)
(4.18783e-12 4.40378e-14 -5.93375e-16 -5.42208e-15 -2.68177e-14 -4.18241e-12)
(5.69889e-12 1.73439e-14 -5.0919e-16 -5.36638e-15 -2.66453e-14 -5.69352e-12)
(7.10158e-12 -1.03014e-14 -2.98016e-16 -5.23598e-15 -2.26541e-14 -7.09634e-12)
(8.22805e-12 -3.59363e-14 2.47559e-17 -5.04143e-15 -1.47968e-14 -8.22301e-12)
(8.95725e-12 -5.72336e-14 4.42316e-16 -4.77881e-15 -2.98149e-15 -8.95247e-12)
(9.15754e-12 -7.11837e-14 9.50383e-16 -4.46353e-15 1.33044e-14 -9.15308e-12)
(8.70594e-12 -7.48006e-14 1.55119e-15 -4.11035e-15 3.44235e-14 -8.70183e-12)
(7.47006e-12 -6.47367e-14 2.28221e-15 -3.74906e-15 6.12255e-14 -7.46631e-12)
(5.31881e-12 -3.76847e-14 3.19321e-15 -3.41993e-15 9.38087e-14 -5.31539e-12)
(2.17701e-12 8.45219e-15 4.31605e-15 -3.17047e-15 1.29993e-13 -2.17384e-12)
(-1.94301e-12 7.2697e-14 5.91165e-15 -2.99732e-15 1.72522e-13 1.94601e-12)
(-7.10874e-12 1.55863e-13 8.24935e-15 -2.98982e-15 2.21804e-13 7.11173e-12)
(-1.31948e-11 2.52987e-13 1.14969e-14 -3.13045e-15 2.73208e-13 1.31979e-11)
(-1.99647e-11 3.57011e-13 1.5814e-14 -3.44444e-15 3.21517e-13 1.99681e-11)
(-2.70004e-11 4.56843e-13 2.12043e-14 -3.90267e-15 3.60431e-13 2.70043e-11)
(-3.3844e-11 5.41562e-13 2.76883e-14 -4.51681e-15 3.90445e-13 3.38485e-11)
(-4.02035e-11 6.04996e-13 3.53595e-14 -5.41703e-15 4.18046e-13 4.02089e-11)
(-4.63701e-11 6.45613e-13 4.68795e-14 -7.29396e-15 5.28054e-13 4.63773e-11)
(-5.40118e-11 6.9449e-13 6.28055e-14 -1.09792e-14 6.47506e-13 5.40228e-11)
(-6.11245e-11 7.06734e-13 7.90317e-14 -1.49605e-14 6.75247e-13 6.11394e-11)
(-6.63766e-11 6.69217e-13 9.44371e-14 -1.96402e-14 6.43372e-13 6.63963e-11)
(-6.86933e-11 5.78474e-13 1.0569e-13 -2.42762e-14 5.31125e-13 6.87175e-11)
(-6.69123e-11 4.41654e-13 1.08014e-13 -2.67035e-14 3.10076e-13 6.6939e-11)
(-6.00503e-11 2.8061e-13 9.68222e-14 -2.31613e-14 -2.30001e-14 6.00735e-11)
(-4.80024e-11 1.31556e-13 7.14516e-14 -9.74528e-15 -4.10651e-13 4.80121e-11)
(-3.22853e-11 3.12801e-14 3.89683e-14 1.37597e-14 -7.25904e-13 3.22716e-11)
(-1.61451e-11 -6.7249e-15 1.26419e-14 4.03829e-14 -8.32545e-13 1.61047e-11)
(-3.47386e-12 -3.51537e-15 1.82955e-15 5.11149e-14 -6.17594e-13 3.42274e-12)
(2.68832e-12 4.79212e-15 2.23072e-15 3.6421e-14 -2.32041e-13 -2.72474e-12)
(3.41109e-12 4.35566e-15 2.9196e-15 1.35027e-14 3.05152e-14 -3.42459e-12)
(2.01925e-12 1.48502e-15 1.59098e-15 -4.55008e-16 9.52249e-14 -2.0188e-12)
(7.56192e-13 2.19328e-16 4.32881e-16 -4.01281e-15 6.24419e-14 -7.5218e-13)
(1.68331e-13 4.83175e-18 5.24281e-17 -2.55641e-15 2.1941e-14 -1.65775e-13)
(1.68268e-14 -8.90534e-19 1.77226e-18 -6.92034e-16 3.62449e-15 -1.61348e-14)
(5.2569e-16 -1.2641e-20 1.26397e-20 -2.62848e-16 2.62845e-16 -2.62842e-16)
(5.81873e-09 1.86874e-11 2.21515e-12 1.49175e-13 1.23769e-10 -5.81888e-09)
(9.04863e-10 7.69369e-11 2.41822e-12 5.46026e-13 3.05506e-10 -9.05409e-10)
(-5.84971e-09 1.62489e-10 5.14413e-12 -5.81734e-13 3.5074e-10 5.85029e-09)
(-1.18526e-08 2.52426e-10 9.40773e-12 -3.04445e-12 2.89346e-10 1.18557e-08)
(-1.59585e-08 3.27449e-10 1.29795e-11 -5.51863e-12 1.94368e-10 1.59641e-08)
(-1.84327e-08 3.8548e-10 1.53234e-11 -7.46854e-12 1.19657e-10 1.84402e-08)
(-1.9906e-08 4.30871e-10 1.68613e-11 -8.99725e-12 7.47988e-11 1.9915e-08)
(-2.08309e-08 4.67814e-10 1.79462e-11 -1.02875e-11 4.88167e-11 2.08412e-08)
(-2.13983e-08 4.9811e-10 1.86194e-11 -1.1429e-11 2.90871e-11 2.14097e-08)
(-2.16558e-08 5.22377e-10 1.88126e-11 -1.24556e-11 9.22651e-12 2.16683e-08)
(-2.16141e-08 5.40902e-10 1.8505e-11 -1.33812e-11 -1.1464e-11 2.16275e-08)
(-2.1308e-08 5.54336e-10 1.77837e-11 -1.4224e-11 -3.09685e-11 2.13222e-08)
(-2.07951e-08 5.63507e-10 1.67995e-11 -1.50021e-11 -4.69426e-11 2.08101e-08)
(-2.01511e-08 5.69411e-10 1.57319e-11 -1.57317e-11 -5.77295e-11 2.01669e-08)
(-1.94496e-08 5.72873e-10 1.47502e-11 -1.64179e-11 -6.21123e-11 1.9466e-08)
(-1.87679e-08 5.74709e-10 1.40325e-11 -1.70573e-11 -5.87082e-11 1.87849e-08)
(-1.81795e-08 5.75636e-10 1.37055e-11 -1.76353e-11 -4.76202e-11 1.81972e-08)
(-1.77378e-08 5.76048e-10 1.38528e-11 -1.81282e-11 -2.89579e-11 1.77559e-08)
(-1.74965e-08 5.7644e-10 1.45802e-11 -1.85158e-11 -1.85509e-12 1.7515e-08)
(-1.75088e-08 5.77328e-10 1.60115e-11 -1.87805e-11 3.50183e-11 1.75276e-08)
(-1.78331e-08 5.79379e-10 1.83208e-11 -1.89153e-11 8.3672e-11 1.7852e-08)
(-1.85285e-08 5.83293e-10 2.16902e-11 -1.89232e-11 1.44771e-10 1.85474e-08)
(-1.96315e-08 5.89409e-10 2.62628e-11 -1.88246e-11 2.16686e-10 1.96504e-08)
(-2.11422e-08 5.9714e-10 3.22873e-11 -1.86878e-11 3.00955e-10 2.11608e-08)
(-2.30664e-08 6.06081e-10 3.99933e-11 -1.86535e-11 3.95084e-10 2.3085e-08)
(-2.5333e-08 6.14203e-10 4.93266e-11 -1.88843e-11 4.8965e-10 2.53518e-08)
(-2.78115e-08 6.18801e-10 6.00546e-11 -1.95941e-11 5.72975e-10 2.78311e-08)
(-3.03001e-08 6.16299e-10 7.16958e-11 -2.09911e-11 6.3383e-10 3.03211e-08)
(-3.25775e-08 6.03493e-10 8.38246e-11 -2.33854e-11 6.72632e-10 3.26009e-08)
(-3.4488e-08 5.79018e-10 9.67183e-11 -2.77656e-11 7.19846e-10 3.45157e-08)
(-3.61472e-08 5.43895e-10 1.1277e-10 -3.7452e-11 8.60941e-10 3.61847e-08)
(-3.80366e-08 5.06578e-10 1.32211e-10 -5.29968e-11 1.00211e-09 3.80896e-08)
(-3.94579e-08 4.57453e-10 1.49528e-10 -7.09473e-11 1.01133e-09 3.95289e-08)
(-3.98675e-08 3.94927e-10 1.62124e-10 -9.01555e-11 8.97607e-10 3.99576e-08)
(-3.88692e-08 3.20704e-10 1.66474e-10 -1.05458e-10 6.3883e-10 3.89746e-08)
(-3.60765e-08 2.3931e-10 1.58114e-10 -1.04561e-10 2.01103e-10 3.61811e-08)
(-3.1228e-08 1.58513e-10 1.33886e-10 -6.91505e-11 -4.00328e-10 3.12971e-08)
(-2.44506e-08 8.86105e-11 9.55402e-11 1.57693e-11 -1.04965e-09 2.44349e-08)
(-1.65055e-08 3.87664e-11 5.23855e-11 1.42892e-10 -1.53027e-09 1.63626e-08)
(-8.76305e-09 1.17357e-11 1.84206e-11 2.65874e-10 -1.6158e-09 8.49717e-09)
(-2.75195e-09 1.77686e-12 2.54408e-12 2.99728e-10 -1.19326e-09 2.45222e-09)
(3.95681e-10 -1.90473e-13 5.82282e-13 2.13176e-10 -5.29758e-10 -6.08857e-10)
(1.11717e-09 -2.95925e-13 1.40382e-12 8.60127e-11 -5.38275e-11 -1.20318e-09)
(7.68592e-10 -2.0361e-13 9.7697e-13 2.07809e-12 1.07741e-10 -7.7067e-10)
(3.25723e-10 -9.40689e-14 3.19354e-13 -2.44171e-11 8.98814e-11 -3.01306e-10)
(8.50375e-11 -2.39084e-14 4.85642e-14 -1.80581e-11 3.49175e-11 -6.69794e-11)
(7.35406e-12 -1.63215e-15 1.63213e-15 -3.67705e-12 3.67703e-12 -3.67702e-12)
(1.68272e-14 -1.77237e-18 8.90529e-19 -1.61352e-14 3.62456e-15 -6.92038e-16)
(4.2259e-07 8.0931e-11 4.16772e-10 3.4006e-11 8.07113e-09 -4.22624e-07)
(2.88607e-07 6.48347e-10 3.14652e-10 1.99595e-10 1.97604e-08 -2.88806e-07)
(1.05946e-07 1.80784e-09 2.38292e-10 2.49398e-10 2.25555e-08 -1.06196e-07)
(-4.74761e-08 3.11839e-09 2.08797e-10 1.51355e-10 1.86786e-08 4.73248e-08)
(-1.4276e-07 4.1821e-09 1.84817e-10 3.11633e-11 1.27242e-08 1.42729e-07)
(-1.91637e-07 4.93708e-09 1.59521e-10 -4.85751e-11 8.0137e-09 1.91686e-07)
(-2.14996e-07 5.47195e-09 1.41088e-10 -9.39126e-11 5.1558e-09 2.15089e-07)
(-2.26934e-07 5.8823e-09 1.29851e-10 -1.22129e-10 3.48402e-09 2.27056e-07)
(-2.33249e-07 6.21421e-09 1.19357e-10 -1.42983e-10 2.23499e-09 2.33392e-07)
(-2.35131e-07 6.48242e-09 1.04213e-10 -1.59915e-10 1.01056e-09 2.35291e-07)
(-2.32545e-07 6.68916e-09 8.34533e-11 -1.73684e-10 -2.41749e-10 2.32719e-07)
(-2.26079e-07 6.84258e-09 5.98086e-11 -1.84786e-10 -1.40714e-09 2.26264e-07)
(-2.17048e-07 6.9559e-09 3.74813e-11 -1.94018e-10 -2.3456e-09 2.17242e-07)
(-2.07404e-07 7.04972e-09 2.06755e-11 -2.02378e-10 -2.95663e-09 2.07606e-07)
(-1.99201e-07 7.14535e-09 1.32318e-11 -2.10753e-10 -3.16609e-09 1.99412e-07)
(-1.94783e-07 7.26838e-09 1.92308e-11 -2.20005e-10 -2.90043e-09 1.95003e-07)
(-1.96465e-07 7.44523e-09 4.08657e-11 -2.30748e-10 -2.17522e-09 1.96696e-07)
(-2.05951e-07 7.69404e-09 8.00605e-11 -2.43513e-10 -1.00948e-09 2.06194e-07)
(-2.24859e-07 8.03209e-09 1.40817e-10 -2.59209e-10 6.41062e-10 2.25118e-07)
(-2.54642e-07 8.4719e-09 2.29274e-10 -2.79049e-10 2.86331e-09 2.54921e-07)
(-2.96786e-07 9.02428e-09 3.54836e-10 -3.04906e-10 5.79773e-09 2.97091e-07)
(-3.528e-07 9.69741e-09 5.28298e-10 -3.39175e-10 9.52124e-09 3.53139e-07)
(-4.23529e-07 1.04866e-08 7.60177e-10 -3.85264e-10 1.39771e-08 4.23914e-07)
(-5.0903e-07 1.13692e-08 1.06709e-09 -4.51717e-10 1.92361e-08 5.09481e-07)
(-6.09684e-07 1.23321e-08 1.46531e-09 -5.52321e-10 2.51024e-08 6.10236e-07)
(-7.23436e-07 1.33198e-08 1.96144e-09 -7.03679e-10 3.09777e-08 7.2414e-07)
(-8.46466e-07 1.42595e-08 2.55645e-09 -9.25101e-10 3.61113e-08 8.47391e-07)
(-9.72555e-07 1.50503e-08 3.24133e-09 -1.23348e-09 3.97532e-08 9.73788e-07)
(-1.09425e-06 1.55873e-08 4.00681e-09 -1.65174e-09 4.17814e-08 1.09591e-06)
(-1.20472e-06 1.57921e-08 4.87e-09 -2.26945e-09 4.39169e-08 1.20699e-06)
(-1.30396e-06 1.56177e-08 5.93007e-09 -3.39912e-09 5.07962e-08 1.30736e-06)
(-1.40414e-06 1.5247e-08 7.19053e-09 -5.07302e-09 5.71976e-08 1.40921e-06)
(-1.48252e-06 1.4459e-08 8.38922e-09 -6.94256e-09 5.56103e-08 1.48946e-06)
(-1.52083e-06 1.32063e-08 9.38283e-09 -8.84571e-09 4.62818e-08 1.52967e-06)
(-1.50497e-06 1.14995e-08 9.96401e-09 -1.02296e-08 2.79623e-08 1.5152e-06)
(-1.42072e-06 9.41085e-09 9.84156e-09 -9.81073e-09 -1.27562e-09 1.43053e-06)
(-1.25772e-06 7.09519e-09 8.75359e-09 -5.68767e-09 -4.03233e-08 1.26341e-06)
(-1.01826e-06 4.79682e-09 6.68049e-09 3.70918e-09 -8.18343e-08 1.01455e-06)
(-7.25832e-07 2.79987e-09 4.0554e-09 1.76433e-08 -1.1201e-07 7.08189e-07)
(-4.25833e-07 1.32775e-09 1.70474e-09 3.12097e-08 -1.16014e-07 3.94623e-07)
(-1.71909e-07 4.29557e-10 3.37385e-10 3.48764e-08 -8.54539e-08 1.37033e-07)
(-1.96274e-08 4.34515e-11 -8.81682e-12 2.4684e-08 -3.81421e-08 -5.05654e-09)
(3.15996e-08 -4.23153e-11 2.05849e-11 9.53617e-09 -3.94452e-09 -4.11357e-08)
(2.87599e-08 -3.03894e-11 3.36623e-11 -4.81596e-10 7.62862e-09 -2.82783e-08)
(1.32171e-08 -1.11671e-11 1.41732e-11 -3.11703e-09 5.72688e-09 -1.01001e-08)
(2.61246e-09 -1.83994e-12 1.83993e-12 -1.30624e-09 1.30623e-09 -1.30623e-09)
(8.50378e-11 -4.85648e-14 2.39083e-14 -6.69798e-11 3.49175e-11 -1.8058e-11)
(1.68333e-13 -5.24295e-17 -4.83252e-18 -1.65777e-13 2.19411e-14 -2.5564e-15)
(1.38504e-05 -1.4669e-08 6.31145e-08 5.99675e-10 7.20636e-08 -1.3851e-05)
(1.32438e-05 -4.24017e-08 5.7653e-08 3.63353e-09 1.72749e-07 -1.32475e-05)
(1.23895e-05 -6.65339e-08 5.00742e-08 4.94682e-09 1.8652e-07 -1.23944e-05)
(1.1786e-05 -8.80792e-08 4.42916e-08 3.93838e-09 1.38081e-07 -1.17899e-05)
(1.15501e-05 -1.07957e-07 4.10578e-08 2.67312e-09 7.68686e-08 -1.15528e-05)
(1.15632e-05 -1.26208e-07 3.9724e-08 2.09422e-09 3.41016e-08 -1.15653e-05)
(1.16724e-05 -1.42474e-07 3.93714e-08 2.04224e-09 1.31121e-08 -1.16744e-05)
(1.17852e-05 -1.56522e-07 3.93288e-08 2.21205e-09 5.32142e-09 -1.17874e-05)
(1.18692e-05 -1.68392e-07 3.92649e-08 2.43792e-09 2.11039e-09 -1.18717e-05)
(1.19242e-05 -1.78279e-07 3.90992e-08 2.66421e-09 -1.03857e-09 -1.19269e-05)
(1.19578e-05 -1.86418e-07 3.88639e-08 2.88151e-09 -4.89073e-09 -1.19607e-05)
(1.19729e-05 -1.92981e-07 3.85954e-08 3.08671e-09 -8.31808e-09 -1.1976e-05)
(1.19666e-05 -1.98067e-07 3.82999e-08 3.27062e-09 -9.71667e-09 -1.19699e-05)
(1.19301e-05 -2.01686e-07 3.79403e-08 3.41863e-09 -7.70798e-09 -1.19335e-05)
(1.18523e-05 -2.03794e-07 3.74607e-08 3.51368e-09 -1.05039e-09 -1.18558e-05)
(1.1718e-05 -2.04276e-07 3.67821e-08 3.53559e-09 1.1498e-08 -1.17215e-05)
(1.151e-05 -2.0297e-07 3.58001e-08 3.46502e-09 3.00668e-08 -1.15134e-05)
(1.12136e-05 -1.99738e-07 3.44369e-08 3.2822e-09 5.44837e-08 -1.12168e-05)
(1.08133e-05 -1.94445e-07 3.26422e-08 2.96248e-09 8.50501e-08 -1.08162e-05)
(1.02944e-05 -1.86997e-07 3.0404e-08 2.47669e-09 1.22481e-07 -1.02969e-05)
(9.64274e-06 -1.7735e-07 2.77581e-08 1.78344e-09 1.68277e-07 -9.64453e-06)
(8.84474e-06 -1.65523e-07 2.47714e-08 8.27334e-10 2.23532e-07 -8.84557e-06)
(7.89154e-06 -1.51639e-07 2.15585e-08 -4.77535e-10 2.88261e-07 -7.89106e-06)
(6.78017e-06 -1.359e-07 1.83552e-08 -2.3341e-09 3.64763e-07 -6.77784e-06)
(5.50386e-06 -1.18416e-07 1.54081e-08 -5.05419e-09 4.52178e-07 -5.4988e-06)
(4.0708e-06 -9.95341e-08 1.3003e-08 -9.03449e-09 5.44627e-07 -4.06176e-06)
(2.49959e-06 -7.96867e-08 1.14822e-08 -1.47661e-08 6.34197e-07 -2.48483e-06)
(8.25949e-07 -5.94727e-08 1.12203e-08 -2.2748e-08 7.11745e-07 -8.03201e-07)
(-9.00957e-07 -3.95897e-08 1.26342e-08 -3.35765e-08 7.72916e-07 9.34534e-07)
(-2.61595e-06 -2.08464e-08 1.63164e-08 -4.89326e-08 8.33122e-07 2.66488e-06)
(-4.2629e-06 -4.75503e-09 2.32476e-08 -7.45189e-08 9.45484e-07 4.33742e-06)
(-5.86424e-06 8.6364e-09 3.28801e-08 -1.11524e-07 1.05413e-06 5.97576e-06)
(-7.30169e-06 1.90962e-08 4.36712e-08 -1.54581e-07 1.06972e-06 7.45627e-06)
(-8.47257e-06 2.68004e-08 5.50686e-08 -2.0133e-07 9.87802e-07 8.6739e-06)
(-9.278e-06 3.17699e-08 6.55716e-08 -2.41658e-07 7.80749e-07 9.51966e-06)
(-9.60093e-06 3.41542e-08 7.24283e-08 -2.4968e-07 4.04093e-07 9.85061e-06)
(-9.33094e-06 3.41728e-08 7.23647e-08 -1.82838e-07 -1.56603e-07 9.51378e-06)
(-8.41028e-06 3.18889e-08 6.32594e-08 3.21566e-09 -8.33644e-07 8.40707e-06)
(-6.87956e-06 2.69892e-08 4.62628e-08 3.14228e-07 -1.44588e-06 6.56534e-06)
(-4.89138e-06 1.92964e-08 2.63534e-08 6.64616e-07 -1.73477e-06 4.22677e-06)
(-2.64064e-06 9.48765e-09 9.37724e-09 8.11839e-07 -1.42363e-06 1.8288e-06)
(-8.33548e-07 2.3985e-09 1.2941e-09 5.94958e-07 -6.96565e-07 2.3859e-07)
(6.99215e-08 -5.81397e-11 -1.03499e-10 2.15777e-07 -1.03593e-07 -2.85699e-07)
(2.39482e-07 -2.8325e-10 1.60305e-10 -2.64688e-08 9.69089e-08 -2.13013e-07)
(1.06294e-07 -1.12836e-10 1.12835e-10 -5.31472e-08 5.31471e-08 -5.31469e-08)
(1.32171e-08 -1.41733e-11 1.11671e-11 -1.01001e-08 5.72688e-09 -3.11701e-09)
(3.25724e-10 -3.19358e-13 9.40681e-14 -3.01307e-10 8.98813e-11 -2.44169e-11)
(7.56197e-13 -4.32887e-16 -2.19335e-16 -7.52184e-13 6.24421e-14 -4.01278e-15)
(5.69041e-05 -3.28687e-08 3.90747e-07 3.24784e-09 2.58201e-07 -5.69073e-05)
(5.34808e-05 -9.98546e-08 3.4399e-07 1.97508e-08 6.30086e-07 -5.35005e-05)
(4.82711e-05 -1.64437e-07 2.78951e-07 2.6235e-08 6.79747e-07 -4.82973e-05)
(4.35413e-05 -2.21579e-07 2.24871e-07 1.90847e-08 4.82627e-07 -4.35603e-05)
(4.01216e-05 -2.69544e-07 1.87899e-07 1.06078e-08 2.45303e-07 -4.01322e-05)
(3.78749e-05 -3.091e-07 1.6438e-07 6.12807e-09 8.77773e-08 -3.78811e-05)
(3.63768e-05 -3.41441e-07 1.49244e-07 4.67642e-09 1.97492e-08 -3.63815e-05)
(3.53086e-05 -3.67717e-07 1.38902e-07 4.50807e-09 4.36048e-09 -3.53131e-05)
(3.45123e-05 -3.89156e-07 1.31374e-07 4.70039e-09 5.90087e-09 -3.4517e-05)
(3.3931e-05 -4.06861e-07 1.25777e-07 4.96105e-09 5.94255e-09 -3.39359e-05)
(3.35363e-05 -4.21618e-07 1.21737e-07 5.25519e-09 1.8532e-09 -3.35415e-05)
(3.3289e-05 -4.33743e-07 1.18977e-07 5.57618e-09 -1.07489e-09 -3.32946e-05)
(3.31347e-05 -4.43182e-07 1.17185e-07 5.87409e-09 4.4437e-09 -3.31406e-05)
(3.30077e-05 -4.49597e-07 1.15966e-07 6.06214e-09 2.47286e-08 -3.30137e-05)
(3.28433e-05 -4.52582e-07 1.1493e-07 6.03316e-09 6.56649e-08 -3.28493e-05)
(3.25744e-05 -4.517e-07 1.13673e-07 5.65568e-09 1.33373e-07 -3.258e-05)
(3.21377e-05 -4.46597e-07 1.11761e-07 4.79627e-09 2.29705e-07 -3.21425e-05)
(3.14876e-05 -4.37195e-07 1.08908e-07 3.30778e-09 3.55635e-07 -3.14909e-05)
(3.05807e-05 -4.23547e-07 1.04931e-07 1.00205e-09 5.1428e-07 -3.05817e-05)
(2.93771e-05 -4.05865e-07 9.97523e-08 -2.35384e-09 7.10121e-07 -2.93748e-05)
(2.78373e-05 -3.84461e-07 9.34035e-08 -7.09389e-09 9.50371e-07 -2.78302e-05)
(2.59145e-05 -3.59677e-07 8.59379e-08 -1.37058e-08 1.24089e-06 -2.59008e-05)
(2.35487e-05 -3.31753e-07 7.7437e-08 -2.30034e-08 1.5849e-06 -2.35257e-05)
(2.07014e-05 -3.01136e-07 6.83721e-08 -3.65508e-08 1.99015e-06 -2.06648e-05)
(1.7391e-05 -2.68801e-07 5.95722e-08 -5.67339e-08 2.45263e-06 -1.73343e-05)
(1.36562e-05 -2.35814e-07 5.19058e-08 -8.68838e-08 2.95384e-06 -1.35693e-05)
(9.55609e-06 -2.03222e-07 4.62954e-08 -1.31283e-07 3.4656e-06 -9.42481e-06)
(5.19597e-06 -1.72218e-07 4.36608e-08 -1.94755e-07 3.95256e-06 -5.00122e-06)
(7.06263e-07 -1.43821e-07 4.48223e-08 -2.82758e-07 4.38822e-06 -4.23506e-07)
(-3.7216e-06 -1.1888e-07 5.07877e-08 -4.05539e-07 4.80489e-06 4.12714e-06)
(-7.94666e-06 -9.97012e-08 6.36772e-08 -5.95414e-07 5.39161e-06 8.54207e-06)
(-1.30728e-05 -7.85945e-08 8.6911e-08 -8.67524e-07 5.95874e-06 1.39403e-05)
(-1.76955e-05 -6.56479e-08 1.15863e-07 -1.20693e-06 6.23508e-06 1.89024e-05)
(-2.14295e-05 -6.03248e-08 1.47864e-07 -1.61427e-06 6.19321e-06 2.30437e-05)
(-2.41159e-05 -6.00479e-08 1.78355e-07 -2.04514e-06 5.67928e-06 2.6161e-05)
(-2.56624e-05 -6.0207e-08 2.00179e-07 -2.35486e-06 4.42149e-06 2.80173e-05)
(-2.61265e-05 -5.41856e-08 2.0609e-07 -2.26478e-06 2.17685e-06 2.83912e-05)
(-2.57019e-05 -3.55871e-08 1.93235e-07 -1.39442e-06 -1.06457e-06 2.70963e-05)
(-2.45091e-05 -4.13266e-09 1.66774e-07 5.6038e-07 -4.84258e-06 2.39487e-05)
(-2.21364e-05 2.85418e-08 1.35299e-07 3.48637e-06 -8.07132e-06 1.865e-05)
(-1.60747e-05 3.08596e-08 8.26553e-08 5.51042e-06 -8.10728e-06 1.05643e-05)
(-7.97743e-06 1.11011e-08 2.84687e-08 4.46409e-06 -4.66696e-06 3.51333e-06)
(-1.9652e-06 1.07424e-09 3.06091e-09 1.61084e-06 -1.17079e-06 3.54358e-07)
(2.76015e-07 -6.85718e-11 6.85727e-11 -1.38009e-07 1.38008e-07 -1.38006e-07)
(2.39482e-07 -1.60307e-10 2.83251e-10 -2.13014e-07 9.69088e-08 -2.64681e-08)
(2.87599e-08 -3.36626e-11 3.03895e-11 -2.82784e-08 7.6286e-09 -4.81563e-10)
(7.68593e-10 -9.76979e-13 2.03607e-13 -7.70672e-10 1.0774e-10 2.07835e-12)
(2.01926e-12 -1.591e-15 -1.48504e-15 -2.01881e-12 9.52249e-14 -4.54959e-16)
(3.82125e-05 2.13152e-09 1.1481e-07 1.23949e-08 9.99349e-07 -3.82249e-05)
(3.02963e-05 4.81668e-09 7.5882e-08 7.69393e-08 2.50978e-06 -3.03732e-05)
(1.86986e-05 1.38045e-08 3.59138e-08 1.06254e-07 2.92251e-06 -1.88049e-05)
(7.49394e-06 4.08515e-08 1.45776e-08 8.12945e-08 2.45867e-06 -7.57523e-06)
(-1.40494e-06 8.41703e-08 8.7854e-09 4.59282e-08 1.74839e-06 1.35902e-06)
(-7.92414e-06 1.34331e-07 1.08871e-08 2.26269e-08 1.18051e-06 7.90151e-06)
(-1.2676e-05 1.83725e-07 1.632e-08 1.05092e-08 8.29563e-07 1.26655e-05)
(-1.62155e-05 2.28385e-07 2.28122e-08 4.15387e-09 6.22207e-07 1.62114e-05)
(-1.88815e-05 2.66462e-07 2.90368e-08 2.83604e-10 4.73256e-07 1.88812e-05)
(-2.08506e-05 2.97053e-07 3.41946e-08 -2.30505e-09 3.36341e-07 2.08529e-05)
(-2.22436e-05 3.19833e-07 3.80263e-08 -3.89477e-09 2.04943e-07 2.22475e-05)
(-2.31905e-05 3.35081e-07 4.07596e-08 -4.64136e-09 9.27334e-08 2.31952e-05)
(-2.38389e-05 3.43526e-07 4.29251e-08 -4.83174e-09 1.75602e-08 2.38437e-05)
(-2.43467e-05 3.46212e-07 4.51693e-08 -4.85541e-09 -7.03729e-09 2.43515e-05)
(-2.48549e-05 3.44203e-07 4.81048e-08 -5.14463e-09 2.96492e-08 2.486e-05)
(-2.54934e-05 3.38566e-07 5.23125e-08 -6.18536e-09 1.37495e-07 2.54996e-05)
(-2.63669e-05 3.30205e-07 5.81614e-08 -8.43745e-09 3.14871e-07 2.63753e-05)
(-2.75274e-05 3.1964e-07 6.58257e-08 -1.23869e-08 5.58734e-07 2.75398e-05)
(-2.90123e-05 3.07269e-07 7.55322e-08 -1.86636e-08 8.73305e-07 2.90309e-05)
(-3.08525e-05 2.93326e-07 8.75919e-08 -2.809e-08 1.26772e-06 3.08806e-05)
(-3.30931e-05 2.77953e-07 1.02564e-07 -4.1959e-08 1.76073e-06 3.31351e-05)
(-3.5816e-05 2.61178e-07 1.21378e-07 -6.24092e-08 2.3758e-06 3.58784e-05)
(-3.91638e-05 2.42955e-07 1.45438e-07 -9.27182e-08 3.12244e-06 3.92565e-05)
(-4.32701e-05 2.22758e-07 1.7641e-07 -1.379e-07 3.98939e-06 4.3408e-05)
(-4.81448e-05 1.9903e-07 2.15572e-07 -2.0554e-07 4.94433e-06 4.83503e-05)
(-5.37691e-05 1.69893e-07 2.6426e-07 -3.06635e-07 5.94014e-06 5.40758e-05)
(-6.01068e-05 1.33292e-07 3.23782e-07 -4.5485e-07 6.90104e-06 6.05616e-05)
(-6.70518e-05 8.68603e-08 3.94886e-07 -6.65633e-07 7.73602e-06 6.77174e-05)
(-7.45101e-05 2.79296e-08 4.78372e-07 -9.56553e-07 8.36672e-06 7.54667e-05)
(-8.22805e-05 -4.78343e-08 5.74005e-07 -1.36507e-06 8.87197e-06 8.36456e-05)
(-8.96915e-05 -1.5265e-07 6.77338e-07 -2.09828e-06 1.02964e-05 9.17898e-05)
(-9.57798e-05 -2.72918e-07 7.70142e-07 -3.15932e-06 1.1674e-05 9.89391e-05)
(-0.000101041 -3.88133e-07 8.5653e-07 -4.34107e-06 1.15751e-05 0.000105382)
(-0.000105483 -5.01587e-07 9.41717e-07 -5.7406e-06 1.05186e-05 0.000111224)
(-0.000108927 -6.09193e-07 1.02486e-06 -7.27963e-06 8.26478e-06 0.000116206)
(-0.000111023 -6.9941e-07 1.10016e-06 -8.60686e-06 4.25261e-06 0.00011963)
(-0.000111063 -7.52935e-07 1.15134e-06 -9.01154e-06 -1.97631e-06 0.000120075)
(-0.000107867 -7.42937e-07 1.14608e-06 -7.37645e-06 -1.03616e-05 0.000115243)
(-0.000100257 -6.44555e-07 1.04558e-06 -2.26404e-06 -1.99559e-05 0.000102521)
(-8.88718e-05 -4.51097e-07 8.5382e-07 8.21294e-06 -2.93065e-05 8.06589e-05)
(-6.6081e-05 -2.13536e-07 5.1479e-07 1.81345e-05 -2.95465e-05 4.79465e-05)
(-3.70381e-05 -9.10645e-08 1.95006e-07 1.6243e-05 -1.84619e-05 2.07951e-05)
(-1.26492e-05 -2.77472e-08 2.77472e-08 6.32459e-06 -6.3246e-06 6.32461e-06)
(-1.96519e-06 -3.06091e-09 -1.07424e-09 3.5435e-07 -1.17079e-06 1.61084e-06)
(6.99221e-08 1.03496e-10 5.81436e-11 -2.857e-07 -1.03594e-07 2.15778e-07)
(3.15996e-08 -2.05854e-11 4.23154e-11 -4.11358e-08 -3.94455e-09 9.53619e-09)
(1.11717e-09 -1.40383e-12 2.9592e-13 -1.20318e-09 -5.38279e-11 8.60129e-11)
(3.4111e-12 -2.91963e-15 -4.35572e-15 -3.4246e-12 3.05152e-14 1.35027e-14)
(1.16146e-05 1.02964e-08 9.51513e-09 2.83109e-08 1.93099e-06 -1.16429e-05)
(5.73577e-06 2.91386e-08 5.88331e-09 1.75685e-07 4.77546e-06 -5.91145e-06)
(-2.1827e-06 5.02932e-08 7.95638e-09 2.4544e-07 5.5006e-06 1.93726e-06)
(-9.71049e-06 8.14901e-08 1.57293e-08 1.93504e-07 4.65554e-06 9.51699e-06)
(-1.55684e-05 1.22002e-07 2.49302e-08 1.14754e-07 3.37633e-06 1.54537e-05)
(-1.98402e-05 1.65334e-07 3.33748e-08 6.108e-08 2.34526e-06 1.97792e-05)
(-2.30709e-05 2.06164e-07 4.12785e-08 3.23695e-08 1.69003e-06 2.30385e-05)
(-2.5694e-05 2.41849e-07 4.9038e-08 1.71323e-08 1.28847e-06 2.56768e-05)
(-2.79464e-05 2.71391e-07 5.65975e-08 8.00553e-09 9.99251e-07 2.79384e-05)
(-2.99295e-05 2.94404e-07 6.37402e-08 2.08167e-09 7.43861e-07 2.99275e-05)
(-3.17069e-05 3.10713e-07 7.05151e-08 -1.48098e-09 5.09172e-07 3.17084e-05)
(-3.33643e-05 3.203e-07 7.73564e-08 -3.19139e-09 3.15741e-07 3.33675e-05)
(-3.5013e-05 3.23208e-07 8.49441e-08 -3.80647e-09 1.91523e-07 3.50168e-05)
(-3.67798e-05 3.19516e-07 9.40445e-08 -4.27597e-09 1.56804e-07 3.67841e-05)
(-3.87713e-05 3.09221e-07 1.05333e-07 -5.61384e-09 2.26476e-07 3.87769e-05)
(-4.1084e-05 2.9237e-07 1.19454e-07 -8.92256e-09 4.13419e-07 4.10929e-05)
(-4.3795e-05 2.6902e-07 1.36869e-07 -1.51996e-08 7.10235e-07 4.38102e-05)
(-4.69376e-05 2.39179e-07 1.57862e-07 -2.54873e-08 1.10821e-06 4.69631e-05)
(-5.05641e-05 2.02916e-07 1.83021e-07 -4.12403e-08 1.61406e-06 5.06053e-05)
(-5.47666e-05 1.60027e-07 2.13412e-07 -6.45847e-08 2.2462e-06 5.48312e-05)
(-5.97031e-05 1.09675e-07 2.5092e-07 -9.91184e-08 3.04192e-06 5.98023e-05)
(-6.56007e-05 4.98682e-08 2.98459e-07 -1.50911e-07 4.04765e-06 6.57516e-05)
(-7.27312e-05 -2.2856e-08 3.60052e-07 -2.29524e-07 5.29138e-06 7.29607e-05)
(-8.14111e-05 -1.13419e-07 4.41356e-07 -3.49309e-07 6.75999e-06 8.17604e-05)
(-9.19989e-05 -2.29211e-07 5.50295e-07 -5.31409e-07 8.39358e-06 9.25303e-05)
(-0.000104774 -3.80488e-07 6.96225e-07 -8.07037e-07 1.01086e-05 0.000105581)
(-0.000120036 -5.80681e-07 8.91366e-07 -1.21724e-06 1.1766e-05 0.000121253)
(-0.00013802 -8.46473e-07 1.15e-06 -1.81433e-06 1.31922e-05 0.000139835)
(-0.000159022 -1.19879e-06 1.4907e-06 -2.66432e-06 1.41873e-05 0.000161687)
(-0.000183115 -1.65955e-06 1.93138e-06 -3.84904e-06 1.45155e-05 0.000186964)
(-0.000209235 -2.24964e-06 2.4594e-06 -5.50869e-06 1.41024e-05 0.000214744)
(-0.000226431 -2.8178e-06 2.79976e-06 -7.72211e-06 1.30089e-05 0.000234153)
(-0.000242653 -3.44841e-06 3.11863e-06 -1.06189e-05 1.05692e-05 0.000253272)
(-0.00025922 -4.14419e-06 3.45913e-06 -1.42514e-05 6.08714e-06 0.000273471)
(-0.000274844 -4.84973e-06 3.80294e-06 -1.82915e-05 -1.55411e-06 0.000293136)
(-0.00028729 -5.44522e-06 4.10581e-06 -2.15568e-05 -1.38352e-05 0.000308846)
(-0.00029351 -5.74362e-06 4.29075e-06 -2.14729e-05 -3.19318e-05 0.000314983)
(-0.000290162 -5.53901e-06 4.26136e-06 -1.40579e-05 -5.5265e-05 0.00030422)
(-0.000274541 -4.73454e-06 3.95778e-06 4.37987e-06 -7.95731e-05 0.000270161)
(-0.000250654 -3.57937e-06 3.48891e-06 3.78421e-05 -9.99518e-05 0.000212812)
(-0.000192267 -2.03701e-06 2.24227e-06 6.31535e-05 -9.1427e-05 0.000129114)
(-0.000103213 -7.40604e-07 7.40603e-07 5.16063e-05 -5.16063e-05 5.16063e-05)
(-3.70381e-05 -1.95006e-07 9.10641e-08 2.07951e-05 -1.84619e-05 1.6243e-05)
(-7.97742e-06 -2.84686e-08 -1.11011e-08 3.51332e-06 -4.66696e-06 4.46409e-06)
(-8.33546e-07 -1.2941e-09 -2.39849e-09 2.38588e-07 -6.96566e-07 5.94959e-07)
(-1.96273e-08 8.81648e-12 -4.3451e-11 -5.05667e-09 -3.81421e-08 2.4684e-08)
(3.95684e-10 -5.82294e-13 1.90472e-13 -6.08861e-10 -5.29758e-10 2.13176e-10)
(2.68833e-12 -2.23074e-15 -4.79218e-15 -2.72475e-12 -2.32041e-13 3.6421e-14)
(8.89924e-05 3.15651e-08 5.32198e-07 4.64607e-08 2.23324e-06 -8.90388e-05)
(8.34705e-05 6.89573e-08 4.70844e-07 2.90119e-07 5.48563e-06 -8.37606e-05)
(7.53493e-05 6.10735e-08 3.87409e-07 4.1159e-07 6.26609e-06 -7.57608e-05)
(6.71279e-05 2.75646e-08 3.10967e-07 3.32081e-07 5.24448e-06 -6.746e-05)
(6.01716e-05 -9.4691e-09 2.52324e-07 2.02435e-07 3.74507e-06 -6.03741e-05)
(5.4596e-05 -4.00444e-08 2.09104e-07 1.11909e-07 2.58153e-06 -5.47079e-05)
(4.99947e-05 -6.21612e-08 1.76086e-07 6.29208e-08 1.89449e-06 -5.00576e-05)
(4.60004e-05 -7.63345e-08 1.49483e-07 3.67506e-08 1.52127e-06 -4.60372e-05)
(4.23966e-05 -8.36545e-08 1.27042e-07 2.08743e-08 1.28091e-06 -4.24174e-05)
(3.90796e-05 -8.51203e-08 1.07605e-07 1.02272e-08 1.07421e-06 -3.90899e-05)
(3.59712e-05 -8.15566e-08 9.05791e-08 3.29776e-09 8.87675e-07 -3.59745e-05)
(3.29597e-05 -7.36127e-08 7.54898e-08 -8.63958e-10 7.5222e-07 -3.29588e-05)
(2.99044e-05 -6.19562e-08 6.18682e-08 -3.66226e-09 7.08287e-07 -2.99007e-05)
(2.6652e-05 -4.74268e-08 4.9234e-08 -6.84426e-09 7.84345e-07 -2.66451e-05)
(2.30859e-05 -3.12483e-08 3.7299e-08 -1.22614e-08 1.00076e-06 -2.30736e-05)
(1.91073e-05 -1.50315e-08 2.58915e-08 -2.19379e-08 1.3761e-06 -1.90854e-05)
(1.46359e-05 -7.18155e-10 1.49527e-08 -3.77318e-08 1.90148e-06 -1.45981e-05)
(9.62939e-06 9.54512e-09 4.68568e-09 -6.17644e-08 2.57087e-06 -9.56762e-06)
(3.98946e-06 1.34452e-08 -4.61924e-09 -9.73903e-08 3.40699e-06 -3.89207e-06)
(-2.46625e-06 8.15605e-09 -1.24718e-08 -1.49978e-07 4.4537e-06 2.61622e-06)
(-1.00229e-05 -1.03497e-08 -1.78887e-08 -2.28685e-07 5.78244e-06 1.02516e-05)
(-1.9067e-05 -4.8188e-08 -1.88184e-08 -3.48594e-07 7.47268e-06 1.94156e-05)
(-3.00529e-05 -1.14544e-07 -1.12385e-08 -5.33288e-07 9.57667e-06 3.05862e-05)
(-4.34545e-05 -2.22341e-07 1.18292e-08 -8.19301e-07 1.21088e-05 4.42738e-05)
(-5.98663e-05 -3.90476e-07 6.23269e-08 -1.25969e-06 1.50022e-05 6.1126e-05)
(-7.97679e-05 -6.432e-07 1.57196e-07 -1.93096e-06 1.81338e-05 8.16989e-05)
(-0.000103657 -1.01254e-06 3.20216e-07 -2.93586e-06 2.12923e-05 0.000106593)
(-0.000131837 -1.53593e-06 5.80252e-07 -4.40873e-06 2.41986e-05 0.000136246)
(-0.0001645 -2.25645e-06 9.7181e-07 -6.51512e-06 2.6468e-05 0.000171015)
(-0.000201195 -3.20478e-06 1.5256e-06 -9.42285e-06 2.75096e-05 0.000210618)
(-0.000240926 -4.38301e-06 2.27205e-06 -1.29693e-05 2.55656e-05 0.000253895)
(-0.000280803 -5.77647e-06 3.12653e-06 -1.75052e-05 2.11538e-05 0.000298308)
(-0.000318994 -7.37813e-06 4.00355e-06 -2.37187e-05 1.48526e-05 0.000342713)
(-0.000352222 -9.00011e-06 4.82132e-06 -3.09861e-05 4.43714e-06 0.000383208)
(-0.000375713 -1.03194e-05 5.42555e-06 -3.76981e-05 -1.17874e-05 0.000413411)
(-0.000385201 -1.09466e-05 5.65668e-06 -4.0538e-05 -3.48544e-05 0.000425739)
(-0.00037953 -1.06069e-05 5.46284e-06 -3.42289e-05 -6.43893e-05 0.000413759)
(-0.00036232 -9.34583e-06 4.99555e-06 -1.2902e-05 -9.74443e-05 0.000375222)
(-0.000340233 -7.54774e-06 4.58085e-06 2.60918e-05 -0.000127671 0.000314141)
(-0.000335311 -6.07728e-06 4.92306e-06 9.43127e-05 -0.000156831 0.000240999)
(-0.000327011 -5.09791e-06 5.09791e-06 0.000163506 -0.000163505 0.000163505)
(-0.000192267 -2.24227e-06 2.037e-06 0.000129113 -9.1427e-05 6.31534e-05)
(-6.60809e-05 -5.14789e-07 2.13535e-07 4.79465e-05 -2.95465e-05 1.81345e-05)
(-1.60747e-05 -8.26552e-08 -3.08597e-08 1.05643e-05 -8.10728e-06 5.51042e-06)
(-2.64064e-06 -9.37722e-09 -9.48764e-09 1.8288e-06 -1.42363e-06 8.11839e-07)
(-1.71909e-07 -3.37385e-10 -4.29555e-10 1.37033e-07 -8.54538e-08 3.48764e-08)
(-2.75194e-09 -2.54409e-12 -1.77683e-12 2.45222e-09 -1.19326e-09 2.99728e-10)