/*--------------------------------*- C++ -*----------------------------------*\
| =========                 |                                                 |
| \\      /  F ield         | OpenFOAM: The Open Source CFD Toolbox           |
|  \\    /   O peration     | Version:  2506                                  |
|   \\  /    A nd           | Website:  www.openfoam.com                      |
|    \\/     M anipulation  |                                                 |
\*---------------------------------------------------------------------------*/
FoamFile
{
    version     2.0;
    format      ascii;
    arch        "LSB;label=32;scalar=64";
    class       volSymmTensorField;
    location    "2137";
    object      Tij6;
}
// * * * * * * * * * * * * * * * * * * * * * * * * * * * * * * * * * * * * * //

dimensions      [0 0 0 0 0 0 0];

internalField   nonuniform List<symmTensor> 
2304
(
(1.57005e-11 -1.87413e-11 -4.61136e-08 1.58422e-11 1.74324e-10 -3.15428e-11)
(1.2528e-11 -4.85459e-11 -4.79637e-08 1.35306e-11 4.95267e-10 -2.60585e-11)
(8.2247e-12 -6.14773e-11 -5.07465e-08 1.00466e-11 7.51915e-10 -1.82713e-11)
(4.5505e-12 -5.96534e-11 -5.35633e-08 6.64818e-12 9.41755e-10 -1.11987e-11)
(2.24595e-12 -5.06424e-11 -5.59377e-08 4.20115e-12 1.07981e-09 -6.4471e-12)
(1.03404e-12 -4.05096e-11 -5.778e-08 2.69671e-12 1.18575e-09 -3.73075e-12)
(4.41391e-13 -3.15895e-11 -5.91658e-08 1.80027e-12 1.27255e-09 -2.24166e-12)
(1.37571e-13 -2.39419e-11 -6.01885e-08 1.20918e-12 1.34698e-09 -1.34675e-12)
(1.09653e-15 -1.70427e-11 -6.09121e-08 7.91195e-13 1.41194e-09 -7.92291e-13)
(1.17495e-14 -1.05785e-11 -6.13779e-08 5.1822e-13 1.46931e-09 -5.2997e-13)
(1.78313e-13 -4.53817e-12 -6.16189e-08 4.02325e-13 1.52081e-09 -5.80638e-13)
(4.87177e-13 9.6957e-13 -6.16691e-08 4.37866e-13 1.56821e-09 -9.25042e-13)
(9.08375e-13 5.88584e-12 -6.15619e-08 5.99956e-13 1.61293e-09 -1.50833e-12)
(1.39413e-12 1.0263e-11 -6.13281e-08 8.39917e-13 1.6559e-09 -2.23405e-12)
(1.89784e-12 1.42369e-11 -6.0992e-08 1.10542e-12 1.6974e-09 -3.00325e-12)
(2.36544e-12 1.79738e-11 -6.05714e-08 1.3345e-12 1.73713e-09 -3.69995e-12)
(2.741e-12 2.16306e-11 -6.00781e-08 1.46344e-12 1.77418e-09 -4.20444e-12)
(2.98416e-12 2.52713e-11 -5.95195e-08 1.44944e-12 1.80729e-09 -4.4336e-12)
(3.05103e-12 2.88543e-11 -5.89027e-08 1.25318e-12 1.83505e-09 -4.30421e-12)
(2.90062e-12 3.23163e-11 -5.82359e-08 8.40781e-13 1.85598e-09 -3.7414e-12)
(2.4888e-12 3.56862e-11 -5.75279e-08 1.7049e-13 1.86861e-09 -2.65929e-12)
(1.77184e-12 3.92116e-11 -5.67844e-08 -8.12645e-13 1.87136e-09 -9.59195e-13)
(7.2468e-13 4.3431e-11 -5.60037e-08 -2.16404e-12 1.86248e-09 1.43936e-12)
(-6.48565e-13 4.9176e-11 -5.5172e-08 -3.92887e-12 1.84013e-09 4.57744e-12)
(-2.37042e-12 5.74725e-11 -5.42608e-08 -6.18827e-12 1.80224e-09 8.55869e-12)
(-4.39906e-12 6.93827e-11 -5.32282e-08 -8.95272e-12 1.7467e-09 1.33518e-11)
(-6.65567e-12 8.58611e-11 -5.20218e-08 -1.21743e-11 1.67181e-09 1.883e-11)
(-9.00089e-12 1.07546e-10 -5.0584e-08 -1.57056e-11 1.57674e-09 2.47065e-11)
(-1.1282e-11 1.34558e-10 -4.886e-08 -1.9335e-11 1.46202e-09 3.06171e-11)
(-1.34018e-11 1.66476e-10 -4.68059e-08 -2.286e-11 1.32954e-09 3.62618e-11)
(-1.54572e-11 2.02743e-10 -4.43947e-08 -2.62573e-11 1.18233e-09 4.17145e-11)
(-1.80045e-11 2.4356e-10 -4.16112e-08 -2.99672e-11 1.0217e-09 4.79716e-11)
(-2.03753e-11 2.88546e-10 -3.84351e-08 -3.31401e-11 8.49877e-10 5.35154e-11)
(-2.21259e-11 3.35524e-10 -3.48687e-08 -3.50871e-11 6.73101e-10 5.7213e-11)
(-2.2898e-11 3.81004e-10 -3.09474e-08 -3.52117e-11 4.99595e-10 5.81097e-11)
(-2.23043e-11 4.2007e-10 -2.6747e-08 -3.29716e-11 3.39e-10 5.52758e-11)
(-2.00169e-11 4.46486e-10 -2.23908e-08 -2.80784e-11 2.0146e-10 4.80952e-11)
(-1.60008e-11 4.53805e-10 -1.80503e-08 -2.08469e-11 9.57143e-11 3.68477e-11)
(-1.07618e-11 4.37535e-10 -1.39299e-08 -1.245e-11 2.63408e-11 2.32118e-11)
(-5.38171e-12 3.97558e-10 -1.02323e-08 -4.73644e-12 -8.60497e-12 1.01182e-11)
(-1.15795e-12 3.39185e-10 -7.11408e-09 5.18139e-13 -1.762e-11 6.39813e-13)
(8.96107e-13 2.71639e-10 -4.64933e-09 2.46544e-12 -1.33058e-11 -3.36155e-12)
(1.13703e-12 2.04142e-10 -2.82248e-09 2.1042e-12 -6.52773e-12 -3.24123e-12)
(6.73085e-13 1.42966e-10 -1.55594e-09 1.09287e-12 -2.17226e-12 -1.76595e-12)
(2.52064e-13 9.13185e-11 -7.45655e-10 3.7065e-13 -4.30588e-13 -6.22715e-13)
(5.61105e-14 5.05876e-11 -2.83971e-10 6.99612e-14 -2.26478e-14 -1.26072e-13)
(5.60893e-15 2.15316e-11 -6.90885e-11 3.34048e-15 5.90797e-15 -8.94941e-15)
(1.7523e-16 5.46562e-12 -5.46562e-12 -8.76333e-17 2.62845e-16 -8.75969e-17)
(1.93952e-09 -1.15305e-08 -9.22528e-06 2.01023e-09 2.82829e-08 -3.94975e-09)
(3.01171e-10 -2.98709e-08 -9.59427e-06 8.06113e-10 8.10901e-08 -1.10728e-09)
(-1.95093e-09 -3.78325e-08 -1.0149e-05 -1.01867e-09 1.25055e-07 2.9696e-09)
(-3.95249e-09 -3.67156e-08 -1.071e-05 -2.85871e-09 1.59549e-07 6.8112e-09)
(-5.32167e-09 -3.11764e-08 -1.11825e-05 -4.28362e-09 1.86189e-07 9.60529e-09)
(-6.14688e-09 -2.49452e-08 -1.1549e-05 -5.25083e-09 2.07444e-07 1.13977e-08)
(-6.63841e-09 -1.94572e-08 -1.18247e-05 -5.89767e-09 2.251e-07 1.25361e-08)
(-6.94709e-09 -1.47494e-08 -1.20282e-05 -6.35806e-09 2.40191e-07 1.33051e-08)
(-7.13658e-09 -1.05006e-08 -1.21723e-05 -6.69968e-09 2.53236e-07 1.38363e-08)
(-7.22276e-09 -6.51914e-09 -1.22652e-05 -6.94151e-09 2.64579e-07 1.41643e-08)
(-7.20917e-09 -2.79843e-09 -1.23134e-05 -7.08438e-09 2.74527e-07 1.42935e-08)
(-7.1074e-09 5.94697e-10 -1.23237e-05 -7.13475e-09 2.83378e-07 1.42421e-08)
(-6.9367e-09 3.62452e-09 -1.23026e-05 -7.10838e-09 2.91376e-07 1.40451e-08)
(-6.7223e-09 6.32405e-09 -1.22564e-05 -7.03054e-09 2.98685e-07 1.37528e-08)
(-6.48869e-09 8.77773e-09 -1.21898e-05 -6.92848e-09 3.0537e-07 1.34172e-08)
(-6.26167e-09 1.10889e-08 -1.21065e-05 -6.83215e-09 3.11406e-07 1.30938e-08)
(-6.06575e-09 1.33551e-08 -1.20086e-05 -6.77015e-09 3.16678e-07 1.28359e-08)
(-5.91865e-09 1.56159e-08 -1.18976e-05 -6.76137e-09 3.21019e-07 1.268e-08)
(-5.83833e-09 1.78449e-08 -1.17749e-05 -6.82117e-09 3.24248e-07 1.26595e-08)
(-5.84248e-09 2.00013e-08 -1.1642e-05 -6.9633e-09 3.26178e-07 1.28058e-08)
(-5.95053e-09 2.21002e-08 -1.15008e-05 -7.20593e-09 3.26631e-07 1.31565e-08)
(-6.18222e-09 2.42906e-08 -1.13524e-05 -7.57489e-09 3.25415e-07 1.37571e-08)
(-6.54972e-09 2.69007e-08 -1.11966e-05 -8.09858e-09 3.22306e-07 1.46483e-08)
(-7.05299e-09 3.04411e-08 -1.10297e-05 -8.80307e-09 3.17021e-07 1.58561e-08)
(-7.69405e-09 3.55449e-08 -1.08468e-05 -9.72134e-09 3.0928e-07 1.74154e-08)
(-8.44914e-09 4.28667e-08 -1.06399e-05 -1.08573e-08 2.98804e-07 1.93064e-08)
(-9.27484e-09 5.29974e-08 -1.03989e-05 -1.21843e-08 2.85361e-07 2.14591e-08)
(-1.01038e-08 6.63376e-08 -1.01123e-05 -1.36324e-08 2.68836e-07 2.37362e-08)
(-1.08624e-08 8.29727e-08 -9.76935e-06 -1.50996e-08 2.49294e-07 2.59619e-08)
(-1.14986e-08 1.02649e-07 -9.3611e-06 -1.64819e-08 2.27016e-07 2.79805e-08)
(-1.20511e-08 1.25019e-07 -8.88208e-06 -1.77599e-08 2.02503e-07 2.9811e-08)
(-1.26804e-08 1.50222e-07 -8.32955e-06 -1.9047e-08 1.76112e-07 3.17273e-08)
(-1.31537e-08 1.78049e-07 -7.69937e-06 -2.00373e-08 1.48302e-07 3.3191e-08)
(-1.32898e-08 2.07199e-07 -6.9919e-06 -2.04426e-08 1.19991e-07 3.37324e-08)
(-1.29568e-08 2.35583e-07 -6.21389e-06 -2.00212e-08 9.22996e-08 3.2978e-08)
(-1.20257e-08 2.60236e-07 -5.37964e-06 -1.85587e-08 6.64962e-08 3.05843e-08)
(-1.04094e-08 2.77332e-07 -4.51258e-06 -1.59447e-08 4.39041e-08 2.63541e-08)
(-8.15024e-09 2.8281e-07 -3.64565e-06 -1.23104e-08 2.57041e-08 2.04606e-08)
(-5.50183e-09 2.73686e-07 -2.81896e-06 -8.13454e-09 1.26293e-08 1.36364e-08)
(-2.92102e-09 2.49608e-07 -2.07352e-06 -4.1891e-09 4.66328e-09 7.11012e-09)
(-9.17317e-10 2.13696e-07 -1.44248e-06 -1.2723e-09 9.67946e-10 2.18961e-09)
(1.31894e-10 1.71743e-07 -9.42929e-07 1.70394e-10 -6.61506e-11 -3.02288e-10)
(3.7239e-10 1.29861e-07 -5.73717e-07 4.67666e-10 -7.32416e-11 -8.40056e-10)
(2.56197e-10 9.21347e-08 -3.18877e-07 2.97752e-10 4.51299e-11 -5.53949e-10)
(1.08574e-10 6.02926e-08 -1.55609e-07 1.06101e-10 6.58152e-11 -2.14675e-10)
(2.83458e-11 3.33893e-08 -5.88002e-08 1.5458e-11 3.18329e-11 -4.38039e-11)
(2.45135e-12 8.28397e-09 -8.28397e-09 -1.22574e-12 3.67703e-12 -1.22561e-12)
(5.60907e-15 6.90884e-11 -2.15316e-11 -8.94994e-15 5.90767e-15 3.34086e-15)
(1.40863e-07 -4.84679e-07 -0.000225579 1.43102e-07 5.20791e-07 -2.83965e-07)
(9.61957e-08 -1.25127e-06 -0.000233533 1.12382e-07 1.50975e-06 -2.08578e-07)
(3.5301e-08 -1.57727e-06 -0.000245445 6.58246e-08 2.37456e-06 -1.01126e-07)
(-1.58477e-08 -1.52455e-06 -0.000257465 2.08753e-08 3.10093e-06 -5.02754e-09)
(-4.76157e-08 -1.29124e-06 -0.000267598 -1.19188e-08 3.69922e-06 5.95346e-08)
(-6.39141e-08 -1.03167e-06 -0.000275477 -3.24898e-08 4.19581e-06 9.6404e-08)
(-7.17056e-08 -8.03994e-07 -0.000281418 -4.53433e-08 4.61401e-06 1.17049e-07)
(-7.569e-08 -6.09121e-07 -0.000285806 -5.45039e-08 4.97059e-06 1.30194e-07)
(-7.77993e-08 -4.33647e-07 -0.000288916 -6.19617e-08 5.27603e-06 1.39761e-07)
(-7.84308e-08 -2.69572e-07 -0.000290926 -6.81682e-08 5.53791e-06 1.46599e-07)
(-7.75728e-08 -1.1648e-07 -0.000291984 -7.29752e-08 5.76262e-06 1.50548e-07)
(-7.54213e-08 2.3072e-08 -0.000292234 -7.63617e-08 5.95592e-06 1.51783e-07)
(-7.24148e-08 1.47784e-07 -0.00029182 -7.8616e-08 6.12248e-06 1.51031e-07)
(-6.92038e-08 2.59154e-07 -0.000290867 -8.03687e-08 6.26554e-06 1.49572e-07)
(-6.64733e-08 3.60769e-07 -0.000289475 -8.23928e-08 6.38668e-06 1.48866e-07)
(-6.50039e-08 4.56996e-07 -0.000287713 -8.56089e-08 6.48603e-06 1.50613e-07)
(-6.55678e-08 5.51957e-07 -0.000285623 -9.09317e-08 6.56237e-06 1.565e-07)
(-6.87327e-08 6.4736e-07 -0.00028323 -9.89673e-08 6.61379e-06 1.677e-07)
(-7.50375e-08 7.42119e-07 -0.000280554 -1.10159e-07 6.63831e-06 1.85196e-07)
(-8.49671e-08 8.34458e-07 -0.000277622 -1.24851e-07 6.63413e-06 2.09818e-07)
(-9.90158e-08 9.24802e-07 -0.000274466 -1.43494e-07 6.59967e-06 2.4251e-07)
(-1.17687e-07 1.019e-06 -0.000271106 -1.66806e-07 6.53333e-06 2.84494e-07)
(-1.41262e-07 1.13036e-06 -0.000267536 -1.9563e-07 6.43292e-06 3.36893e-07)
(-1.6976e-07 1.2805e-06 -0.00026379 -2.3091e-07 6.29719e-06 4.0067e-07)
(-2.03308e-07 1.49558e-06 -0.000259704 -2.73829e-07 6.12097e-06 4.77137e-07)
(-2.41221e-07 1.80286e-06 -0.000255086 -3.2466e-07 5.90006e-06 5.65881e-07)
(-2.82226e-07 2.22769e-06 -0.000249714 -3.8277e-07 5.63117e-06 6.64996e-07)
(-3.24249e-07 2.78829e-06 -0.00024334 -4.4613e-07 5.31226e-06 7.7038e-07)
(-3.64809e-07 3.49081e-06 -0.000235715 -5.11497e-07 4.94345e-06 8.76306e-07)
(-4.01625e-07 4.32778e-06 -0.000226623 -5.7508e-07 4.52843e-06 9.76704e-07)
(-4.34697e-07 5.28734e-06 -0.000215915 -6.35284e-07 4.07733e-06 1.06998e-06)
(-4.68081e-07 6.37833e-06 -0.000203513 -6.95252e-07 3.59873e-06 1.16333e-06)
(-4.942e-07 7.59681e-06 -0.000189292 -7.45915e-07 3.10136e-06 1.24012e-06)
(-5.06964e-07 8.89524e-06 -0.000173224 -7.78498e-07 2.59801e-06 1.28546e-06)
(-5.01674e-07 1.01945e-05 -0.000155407 -7.85044e-07 2.10134e-06 1.28672e-06)
(-4.73585e-07 1.13765e-05 -0.000136088 -7.57083e-07 1.62448e-06 1.23067e-06)
(-4.19249e-07 1.22794e-05 -0.000115708 -6.87356e-07 1.18226e-06 1.1066e-06)
(-3.39424e-07 1.27163e-05 -9.49373e-05 -5.74067e-07 7.92005e-07 9.13491e-07)
(-2.41947e-07 1.2526e-05 -7.46625e-05 -4.26153e-07 4.72655e-07 6.681e-07)
(-1.41945e-07 1.16461e-05 -5.5891e-05 -2.65998e-07 2.40378e-07 4.07944e-07)
(-5.73034e-08 1.01709e-05 -3.9567e-05 -1.26521e-07 1.03643e-07 1.83825e-07)
(-6.54252e-09 8.35112e-06 -2.63507e-05 -3.90611e-08 4.30404e-08 4.56036e-08)
(1.05332e-08 6.44932e-06 -1.63257e-05 -3.82183e-09 2.15752e-08 -6.71135e-09)
(9.58663e-09 4.61187e-06 -9.11668e-06 2.3869e-09 1.25695e-08 -1.19735e-08)
(4.4057e-09 2.78003e-06 -4.08497e-06 4.5019e-10 6.05759e-09 -4.85589e-09)
(8.70821e-10 9.27338e-07 -9.27338e-07 -4.35421e-10 1.30623e-09 -4.35401e-10)
(2.83459e-11 5.88002e-08 -3.33893e-08 -4.38047e-11 3.18326e-11 1.54588e-11)
(5.61111e-14 2.83971e-10 -5.05875e-11 -1.26074e-13 -2.26498e-14 6.99626e-14)
(4.61682e-06 -4.77417e-06 -0.00152537 4.63143e-06 2.31275e-06 -9.24825e-06)
(4.41465e-06 -1.22451e-05 -0.00156493 4.52291e-06 6.86591e-06 -8.93756e-06)
(4.12994e-06 -1.52976e-05 -0.0016236 4.34237e-06 1.12143e-05 -8.47231e-06)
(3.92887e-06 -1.46703e-05 -0.0016822 4.19548e-06 1.52336e-05 -8.12435e-06)
(3.85036e-06 -1.23557e-05 -0.00173122 4.11917e-06 1.87904e-05 -7.96954e-06)
(3.85486e-06 -9.833e-06 -0.00176912 4.09811e-06 2.18502e-05 -7.95297e-06)
(3.89137e-06 -7.63893e-06 -0.00179754 4.09939e-06 2.44492e-05 -7.99076e-06)
(3.92909e-06 -5.77225e-06 -0.00181841 4.09841e-06 2.66519e-05 -8.0275e-06)
(3.9572e-06 -4.10262e-06 -0.00183313 4.0849e-06 2.85172e-05 -8.0421e-06)
(3.97561e-06 -2.55139e-06 -0.00184264 4.05897e-06 3.00918e-05 -8.03458e-06)
(3.98689e-06 -1.11036e-06 -0.00184767 4.02465e-06 3.14115e-05 -8.01153e-06)
(3.992e-06 2.00938e-07 -0.00184895 3.98494e-06 3.2505e-05 -7.97694e-06)
(3.98995e-06 1.37398e-06 -0.00184713 3.94028e-06 3.33949e-05 -7.93023e-06)
(3.97783e-06 2.42546e-06 -0.00184282 3.8881e-06 3.40972e-05 -7.86593e-06)
(3.95193e-06 3.39104e-06 -0.00183645 3.82411e-06 3.46222e-05 -7.77604e-06)
(3.90717e-06 4.31362e-06 -0.00182836 3.7422e-06 3.49758e-05 -7.64937e-06)
(3.83784e-06 5.23399e-06 -0.0018187 3.63556e-06 3.51606e-05 -7.4734e-06)
(3.73903e-06 6.17061e-06 -0.00180758 3.49897e-06 3.51785e-05 -7.238e-06)
(3.60558e-06 7.11563e-06 -0.00179504 3.328e-06 3.50327e-05 -6.93358e-06)
(3.43259e-06 8.05408e-06 -0.00178116 3.11872e-06 3.47287e-05 -6.55131e-06)
(3.21532e-06 8.9908e-06 -0.00176599 2.86658e-06 3.42738e-05 -6.0819e-06)
(2.94927e-06 9.98099e-06 -0.00174957 2.56531e-06 3.3676e-05 -5.51458e-06)
(2.63147e-06 1.1153e-05 -0.00173184 2.20751e-06 3.29406e-05 -4.83898e-06)
(2.26094e-06 1.27131e-05 -0.00171321 1.78525e-06 3.20756e-05 -4.04619e-06)
(1.83542e-06 1.49116e-05 -0.00169261 1.28849e-06 3.10633e-05 -3.12391e-06)
(1.35765e-06 1.80212e-05 -0.00166911 7.12484e-07 2.98969e-05 -2.07014e-06)
(8.33832e-07 2.23044e-05 -0.00164162 5.78735e-08 2.85682e-05 -8.91705e-07)
(2.75861e-07 2.79723e-05 -0.00160885 -6.65365e-07 2.70677e-05 3.89504e-07)
(-2.99863e-07 3.51435e-05 -0.00156942 -1.43774e-06 2.53858e-05 1.73761e-06)
(-8.71616e-07 4.38283e-05 -0.001522 -2.22952e-06 2.35215e-05 3.10114e-06)
(-1.42068e-06 5.39967e-05 -0.00146544 -3.01453e-06 2.15214e-05 4.43521e-06)
(-1.95453e-06 6.58051e-05 -0.00139887 -3.80174e-06 1.94537e-05 5.75626e-06)
(-2.43373e-06 7.93257e-05 -0.00132128 -4.55508e-06 1.73855e-05 6.98882e-06)
(-2.82407e-06 9.42685e-05 -0.001232 -5.23515e-06 1.534e-05 8.05922e-06)
(-3.09258e-06 0.00011006 -0.00113077 -5.79563e-06 1.33035e-05 8.88821e-06)
(-3.20026e-06 0.000125719 -0.0010179 -6.16692e-06 1.12347e-05 9.36717e-06)
(-3.11029e-06 0.000139691 -0.000894499 -6.25166e-06 9.08438e-06 9.36195e-06)
(-2.80342e-06 0.000149867 -0.000762869 -5.93553e-06 6.8382e-06 8.73895e-06)
(-2.2932e-06 0.000153892 -0.000626834 -5.12575e-06 4.57664e-06 7.41894e-06)
(-1.63047e-06 0.000149839 -0.000491853 -3.82396e-06 2.52083e-06 5.45443e-06)
(-8.80223e-07 0.000137064 -0.000364612 -2.26236e-06 1.08218e-06 3.14259e-06)
(-2.77852e-07 0.00011684 -0.000251845 -9.70794e-07 3.92697e-07 1.24865e-06)
(2.33069e-08 9.08498e-05 -0.000156889 -2.70787e-07 1.89032e-07 2.4748e-07)
(7.98274e-08 5.92386e-05 -7.97782e-05 -4.99884e-08 1.28129e-07 -2.9839e-08)
(3.54314e-08 2.5033e-05 -2.5033e-05 -1.7716e-08 5.31471e-08 -1.77154e-08)
(4.4057e-09 4.08497e-06 -2.78003e-06 -4.85596e-09 6.05757e-09 4.50263e-10)
(1.08575e-10 1.55608e-07 -6.02925e-08 -2.14678e-10 6.58138e-11 1.06103e-10)
(2.52066e-13 7.45654e-10 -9.13184e-11 -6.22719e-13 -4.30596e-13 3.70654e-13)
(1.8968e-05 -1.76684e-05 -0.00415003 1.89967e-05 3.24574e-06 -3.79647e-05)
(1.7827e-05 -4.50151e-05 -0.00421281 1.80541e-05 1.03433e-05 -3.58811e-05)
(1.60905e-05 -5.57377e-05 -0.00430522 1.65784e-05 1.85261e-05 -3.26689e-05)
(1.45141e-05 -5.30525e-05 -0.00439685 1.51775e-05 2.72225e-05 -2.96916e-05)
(1.33744e-05 -4.44457e-05 -0.00447307 1.40848e-05 3.55419e-05 -2.74592e-05)
(1.26258e-05 -3.52227e-05 -0.00453159 1.32954e-05 4.29263e-05 -2.59212e-05)
(1.21267e-05 -2.72491e-05 -0.00457506 1.27143e-05 4.92229e-05 -2.4841e-05)
(1.17708e-05 -2.05011e-05 -0.00460665 1.22566e-05 5.44996e-05 -2.40273e-05)
(1.15055e-05 -1.45127e-05 -0.0046287 1.18751e-05 5.88836e-05 -2.33807e-05)
(1.13119e-05 -8.99528e-06 -0.00464285 1.15542e-05 6.24862e-05 -2.28661e-05)
(1.11805e-05 -3.90015e-06 -0.00465035 1.12902e-05 6.53892e-05 -2.24707e-05)
(1.10982e-05 7.25316e-07 -0.00465235 1.10771e-05 6.765e-05 -2.21753e-05)
(1.10469e-05 4.8678e-06 -0.00464987 1.09018e-05 6.93106e-05 -2.19487e-05)
(1.10046e-05 8.59646e-06 -0.00464383 1.0744e-05 7.04022e-05 -2.17486e-05)
(1.09498e-05 1.20432e-05 -0.00463492 1.05813e-05 7.0951e-05 -2.15311e-05)
(1.08602e-05 1.53648e-05 -0.00462363 1.03888e-05 7.09846e-05 -2.12489e-05)
(1.07146e-05 1.87124e-05 -0.00461029 1.01425e-05 7.05352e-05 -2.08572e-05)
(1.04979e-05 2.21648e-05 -0.00459499 9.82669e-06 6.96439e-05 -2.03246e-05)
(1.01955e-05 2.57157e-05 -0.00457773 9.42837e-06 6.83609e-05 -1.96238e-05)
(9.79421e-06 2.93383e-05 -0.00455843 8.93628e-06 6.67416e-05 -1.87305e-05)
(9.28083e-06 3.3077e-05 -0.00453694 8.33678e-06 6.48424e-05 -1.76176e-05)
(8.63977e-06 3.71559e-05 -0.00451301 7.60876e-06 6.27165e-05 -1.62485e-05)
(7.85103e-06 4.20529e-05 -0.00448648 6.72059e-06 6.04072e-05 -1.45716e-05)
(6.90181e-06 4.84951e-05 -0.00445783 5.64341e-06 5.7945e-05 -1.25452e-05)
(5.79821e-06 5.73925e-05 -0.00442509 4.36587e-06 5.53236e-05 -1.01641e-05)
(4.55314e-06 6.97737e-05 -0.00438668 2.88452e-06 5.2551e-05 -7.43766e-06)
(3.18631e-06 8.66662e-05 -0.00434075 1.20784e-06 4.96253e-05 -4.39414e-06)
(1.73281e-06 0.000108984 -0.00428509 -6.32126e-07 4.65322e-05 -1.10068e-06)
(2.36119e-07 0.00013743 -0.00421722 -2.5837e-06 4.32341e-05 2.34758e-06)
(-1.23995e-06 0.000172472 -0.00413441 -4.56029e-06 3.96532e-05 5.80024e-06)
(-2.64843e-06 0.000214537 -0.00403373 -6.48214e-06 3.57308e-05 9.13057e-06)
(-4.35726e-06 0.00026447 -0.00391155 -8.73906e-06 3.18169e-05 1.30963e-05)
(-5.89824e-06 0.000323042 -0.00376608 -1.09564e-05 2.85116e-05 1.68546e-05)
(-7.14295e-06 0.00039025 -0.00359528 -1.30628e-05 2.57873e-05 2.02058e-05)
(-8.03844e-06 0.000465351 -0.00339707 -1.50642e-05 2.35134e-05 2.31026e-05)
(-8.55395e-06 0.000546322 -0.00316948 -1.69542e-05 2.14332e-05 2.55081e-05)
(-8.70862e-06 0.000628974 -0.00291053 -1.86509e-05 1.91082e-05 2.73595e-05)
(-8.56706e-06 0.000706077 -0.00261831 -1.98647e-05 1.59599e-05 2.84318e-05)
(-8.16946e-06 0.000766797 -0.00229114 -1.99176e-05 1.14848e-05 2.8087e-05)
(-7.37864e-06 0.00079651 -0.00192804 -1.76033e-05 5.69051e-06 2.49819e-05)
(-5.35818e-06 0.000776822 -0.00152925 -1.21619e-05 8.85804e-07 1.75201e-05)
(-2.65913e-06 0.000688803 -0.00110105 -5.59348e-06 -1.06799e-06 8.25261e-06)
(-6.55066e-07 0.000517015 -0.000662834 -1.27534e-06 -6.10741e-07 1.93041e-06)
(9.20051e-08 0.000277752 -0.000277752 -4.60047e-08 1.38008e-07 -4.60004e-08)
(7.98274e-08 7.97781e-05 -5.92385e-05 -2.98404e-08 1.28129e-07 -4.99871e-08)
(9.58664e-09 9.11668e-06 -4.61187e-06 -1.19737e-08 1.25694e-08 2.38703e-09)
(2.56198e-10 3.18876e-07 -9.21346e-08 -5.53953e-10 4.51263e-11 2.97755e-10)
(6.73087e-13 1.55594e-09 -1.42965e-10 -1.76596e-12 -2.17228e-12 1.09287e-12)
(1.27375e-05 -3.5811e-05 -0.00639221 1.27584e-05 1.75864e-06 -2.54959e-05)
(1.00988e-05 -9.09766e-05 -0.00643987 1.02998e-05 6.89895e-06 -2.03985e-05)
(6.23285e-06 -0.00011231 -0.00651164 6.75886e-06 1.50841e-05 -1.29917e-05)
(2.49788e-06 -0.000106753 -0.00658486 3.3198e-06 2.52833e-05 -5.81768e-06)
(-4.68564e-07 -8.9414e-05 -0.0066474 4.94772e-07 3.58135e-05 -2.62075e-08)
(-2.64183e-06 -7.08036e-05 -0.00669617 -1.68083e-06 4.54809e-05 4.32266e-06)
(-4.226e-06 -5.46391e-05 -0.0067325 -3.35366e-06 5.3793e-05 7.57966e-06)
(-5.40609e-06 -4.0937e-05 -0.00675873 -4.67163e-06 6.06779e-05 1.00777e-05)
(-6.29494e-06 -2.88227e-05 -0.00677696 -5.7319e-06 6.62321e-05 1.20268e-05)
(-6.95148e-06 -1.77291e-05 -0.00678875 -6.58302e-06 7.05722e-05 1.35345e-05)
(-7.41596e-06 -7.53116e-06 -0.00679534 -7.25243e-06 7.3791e-05 1.46684e-05)
(-7.73171e-06 1.71595e-06 -0.00679778 -7.77006e-06 7.59515e-05 1.55018e-05)
(-7.94787e-06 1.00164e-05 -0.00679702 -8.17515e-06 7.70978e-05 1.6123e-05)
(-8.11713e-06 1.75243e-05 -0.00679388 -8.51588e-06 7.72635e-05 1.6633e-05)
(-8.28648e-06 2.45083e-05 -0.00678907 -8.83905e-06 7.64869e-05 1.71255e-05)
(-8.49926e-06 3.12848e-05 -0.00678316 -9.19003e-06 7.4825e-05 1.76893e-05)
(-8.79029e-06 3.81626e-05 -0.00677651 -9.60616e-06 7.23591e-05 1.83964e-05)
(-9.177e-06 4.53289e-05 -0.0067692 -1.0105e-05 6.91975e-05 1.9282e-05)
(-9.6718e-06 5.28321e-05 -0.00676104 -1.06968e-05 6.54659e-05 2.03686e-05)
(-1.0285e-05 6.0705e-05 -0.00675149 -1.13897e-05 6.12871e-05 2.16748e-05)
(-1.10318e-05 6.91374e-05 -0.00673982 -1.21999e-05 5.67625e-05 2.32317e-05)
(-1.19392e-05 7.86738e-05 -0.00672517 -1.316e-05 5.19583e-05 2.50992e-05)
(-1.3055e-05 9.03276e-05 -0.00670731 -1.43258e-05 4.69089e-05 2.73808e-05)
(-1.44237e-05 0.000105554 -0.00668587 -1.57492e-05 4.1628e-05 3.01728e-05)
(-1.60485e-05 0.000126199 -0.00665887 -1.74341e-05 3.60886e-05 3.34826e-05)
(-1.79232e-05 0.000154362 -0.00662479 -1.93624e-05 3.02428e-05 3.72855e-05)
(-2.00356e-05 0.000192187 -0.00658203 -2.14916e-05 2.40344e-05 4.15272e-05)
(-2.23506e-05 0.000241692 -0.00652867 -2.37328e-05 1.74023e-05 4.60834e-05)
(-2.48367e-05 0.000304656 -0.00646253 -2.59725e-05 1.02639e-05 5.08092e-05)
(-2.74268e-05 0.000382687 -0.00638107 -2.80196e-05 2.45592e-06 5.54465e-05)
(-2.98972e-05 0.000477891 -0.00628185 -2.94428e-05 -6.38439e-06 5.934e-05)
(-3.19267e-05 0.000592277 -0.00616211 -2.98966e-05 -1.50728e-05 6.18233e-05)
(-3.36803e-05 0.000727685 -0.00601913 -2.96976e-05 -2.23477e-05 6.33779e-05)
(-3.51611e-05 0.000886177 -0.00585115 -2.89262e-05 -2.811e-05 6.40873e-05)
(-3.6309e-05 0.00106908 -0.00565644 -2.7745e-05 -3.21518e-05 6.40539e-05)
(-3.70076e-05 0.00127631 -0.00543246 -2.65038e-05 -3.41734e-05 6.35114e-05)
(-3.70211e-05 0.00150473 -0.0051741 -2.57033e-05 -3.39717e-05 6.27243e-05)
(-3.59556e-05 0.00174536 -0.00487072 -2.58141e-05 -3.16658e-05 6.17697e-05)
(-3.3419e-05 0.00197852 -0.00450169 -2.67563e-05 -2.81493e-05 6.01753e-05)
(-2.96239e-05 0.00216471 -0.00403021 -2.59073e-05 -2.63287e-05 5.55312e-05)
(-2.20269e-05 0.00222353 -0.00339228 -1.88849e-05 -2.30238e-05 4.09118e-05)
(-1.2346e-05 0.00201928 -0.00251282 -6.22086e-06 -1.62319e-05 1.85669e-05)
(-4.2164e-06 0.00144161 -0.00144161 2.1082e-06 -6.3246e-06 2.1082e-06)
(-6.55065e-07 0.000662833 -0.000517015 1.9304e-06 -6.10741e-07 -1.27533e-06)
(2.33071e-08 0.000156889 -9.08497e-05 2.47478e-07 1.89031e-07 -2.70785e-07)
(1.05332e-08 1.63256e-05 -6.44932e-06 -6.71156e-09 2.15751e-08 -3.82164e-09)
(3.72391e-10 5.73716e-07 -1.29861e-07 -8.40061e-10 -7.32491e-11 4.6767e-10)
(1.13703e-12 2.82248e-09 -2.04141e-10 -3.24124e-12 -6.52777e-12 2.10421e-12)
(3.87152e-06 -5.34158e-05 -0.00744695 3.87022e-06 -1.32401e-07 -7.74174e-06)
(1.91192e-06 -0.000135406 -0.00744601 1.96558e-06 1.42217e-06 -3.8775e-06)
(-7.27567e-07 -0.000166783 -0.00744549 -4.35479e-07 6.54099e-06 1.16305e-06)
(-3.23686e-06 -0.000158369 -0.00744575 -2.63053e-06 1.43513e-05 5.86739e-06)
(-5.18961e-06 -0.000132587 -0.00744629 -4.3696e-06 2.3159e-05 9.55921e-06)
(-6.6137e-06 -0.000104828 -0.00744674 -5.7278e-06 3.16011e-05 1.23415e-05)
(-7.69074e-06 -8.0594e-05 -0.00744703 -6.85009e-06 3.89604e-05 1.45408e-05)
(-8.56527e-06 -6.00347e-05 -0.0074472 -7.84192e-06 4.49675e-05 1.64072e-05)
(-9.31621e-06 -4.19544e-05 -0.0074473 -8.75837e-06 4.95898e-05 1.80746e-05)
(-9.97738e-06 -2.55246e-05 -0.00744736 -9.61535e-06 5.28673e-05 1.95927e-05)
(-1.05699e-05 -1.05041e-05 -0.00744738 -1.04152e-05 5.48482e-05 2.09851e-05)
(-1.11224e-05 3.0987e-06 -0.00744738 -1.11686e-05 5.55656e-05 2.2291e-05)
(-1.16719e-05 1.53424e-05 -0.00744737 -1.18989e-05 5.50419e-05 2.35708e-05)
(-1.22608e-05 2.6475e-05 -0.00744734 -1.26403e-05 5.32981e-05 2.49011e-05)
(-1.29245e-05 3.68909e-05 -0.00744731 -1.34246e-05 5.03739e-05 2.63491e-05)
(-1.36953e-05 4.70459e-05 -0.00744726 -1.42826e-05 4.63482e-05 2.79779e-05)
(-1.45989e-05 5.73945e-05 -0.00744719 -1.52387e-05 4.13387e-05 2.98376e-05)
(-1.56462e-05 6.82579e-05 -0.0074471 -1.6301e-05 3.54985e-05 3.19472e-05)
(-1.68549e-05 7.98215e-05 -0.00744697 -1.74822e-05 2.89883e-05 3.43372e-05)
(-1.82557e-05 9.23058e-05 -0.0074468 -1.88079e-05 2.19352e-05 3.70636e-05)
(-1.99011e-05 0.000106189 -0.00744658 -2.03241e-05 1.44036e-05 4.02252e-05)
(-2.18669e-05 0.000122437 -0.00744626 -2.20944e-05 6.37839e-06 4.39613e-05)
(-2.42437e-05 0.00014266 -0.0074458 -2.41855e-05 -2.21757e-06 4.84292e-05)
(-2.71371e-05 0.00016908 -0.0074451 -2.66579e-05 -1.1473e-05 5.3795e-05)
(-3.06666e-05 0.00020448 -0.007444 -2.9552e-05 -2.15399e-05 6.02186e-05)
(-3.49253e-05 0.000252062 -0.00744223 -3.2834e-05 -3.26214e-05 6.77593e-05)
(-4.00131e-05 0.000315225 -0.00743938 -3.64159e-05 -4.49281e-05 7.64289e-05)
(-4.60085e-05 0.000397414 -0.00743483 -4.0119e-05 -5.86438e-05 8.61275e-05)
(-5.30102e-05 0.000502059 -0.00742765 -4.37095e-05 -7.38895e-05 9.67197e-05)
(-6.10423e-05 0.000632606 -0.00741653 -4.68209e-05 -9.06116e-05 0.000107863)
(-6.97508e-05 0.000793 -0.00739969 -4.86169e-05 -0.000108742 0.000118368)
(-7.54841e-05 0.000978628 -0.00730163 -4.53434e-05 -0.000125673 0.000120827)
(-8.08932e-05 0.00119802 -0.00717997 -3.92192e-05 -0.000141743 0.000120112)
(-8.64169e-05 0.00145613 -0.00704591 -3.07487e-05 -0.000155832 0.000117166)
(-9.16259e-05 0.00175731 -0.00690068 -2.02097e-05 -0.000166255 0.000111836)
(-9.57745e-05 0.00210528 -0.00674285 -8.57106e-06 -0.000171024 0.000104346)
(-9.78466e-05 0.00250022 -0.00656349 2.22649e-06 -0.000168325 9.56201e-05)
(-9.67275e-05 0.00293274 -0.0063393 9.36454e-06 -0.000157336 8.73629e-05)
(-9.15164e-05 0.00337238 -0.00602452 9.93484e-06 -0.000139115 8.15816e-05)
(-8.3552e-05 0.00375041 -0.00554553 7.32902e-06 -0.000121231 7.6223e-05)
(-6.4089e-05 0.00392426 -0.00479182 9.6693e-06 -9.35594e-05 5.44197e-05)
(-3.44042e-05 0.00359601 -0.003596 1.72021e-05 -5.16063e-05 1.72021e-05)
(-1.2346e-05 0.00251282 -0.00201928 1.85669e-05 -1.62318e-05 -6.22088e-06)
(-2.65913e-06 0.00110105 -0.000688803 8.2526e-06 -1.06799e-06 -5.59347e-06)
(-2.77851e-07 0.000251844 -0.00011684 1.24864e-06 3.92696e-07 -9.70791e-07)
(-6.54248e-09 2.63506e-05 -8.35111e-06 4.56033e-08 4.30401e-08 -3.90608e-08)
(1.31895e-10 9.42928e-07 -1.71742e-07 -3.02295e-10 -6.61637e-11 1.70401e-10)
(8.96111e-13 4.64932e-09 -2.71639e-10 -3.36156e-12 -1.33059e-11 2.46545e-12)
(2.96641e-05 -6.5816e-05 -0.00744579 2.96324e-05 -2.18828e-06 -5.92965e-05)
(2.78235e-05 -0.000167874 -0.00744441 2.76509e-05 -4.76981e-06 -5.54744e-05)
(2.51164e-05 -0.000208946 -0.00744366 2.49723e-05 -3.62452e-06 -5.00887e-05)
(2.2376e-05 -0.000200816 -0.00744415 2.24602e-05 6.54037e-07 -4.48362e-05)
(2.00572e-05 -0.000169956 -0.0074451 2.03858e-05 6.50667e-06 -4.0443e-05)
(1.81987e-05 -0.000135341 -0.00744594 1.86726e-05 1.25369e-05 -3.68713e-05)
(1.66649e-05 -0.000104321 -0.00744654 1.7176e-05 1.78895e-05 -3.38409e-05)
(1.53335e-05 -7.75928e-05 -0.00744693 1.57997e-05 2.21291e-05 -3.11332e-05)
(1.41322e-05 -5.39607e-05 -0.0074472 1.4498e-05 2.5086e-05 -2.86302e-05)
(1.30266e-05 -3.24931e-05 -0.00744737 1.32603e-05 2.67011e-05 -2.62869e-05)
(1.19904e-05 -1.28804e-05 -0.00744748 1.20838e-05 2.69584e-05 -2.40742e-05)
(1.09866e-05 4.91186e-06 -0.00744753 1.09525e-05 2.58516e-05 -2.19391e-05)
(9.96817e-06 2.09976e-05 -0.00744755 9.83654e-06 2.33841e-05 -1.98047e-05)
(8.88401e-06 3.57097e-05 -0.00744753 8.6969e-06 1.95744e-05 -1.75809e-05)
(7.6953e-06 4.95504e-05 -0.00744749 7.50368e-06 1.44758e-05 -1.5199e-05)
(6.36912e-06 6.30968e-05 -0.00744743 6.23167e-06 8.19212e-06 -1.26008e-05)
(4.87862e-06 7.6941e-05 -0.00744733 4.86238e-06 8.61551e-07 -9.74101e-06)
(3.2098e-06 9.15656e-05 -0.00744718 3.39235e-06 -7.36331e-06 -6.60215e-06)
(1.32984e-06 0.000107362 -0.00744698 1.80243e-06 -1.6358e-05 -3.13227e-06)
(-8.22032e-07 0.000124834 -0.0074467 5.17706e-08 -2.60765e-05 7.70261e-07)
(-3.34089e-06 0.000144823 -0.00744632 -1.92198e-06 -3.65636e-05 5.26287e-06)
(-6.3555e-06 0.000168758 -0.00744576 -4.19093e-06 -4.79476e-05 1.05464e-05)
(-1.00174e-05 0.000198812 -0.00744493 -6.81022e-06 -6.04175e-05 1.68276e-05)
(-1.44845e-05 0.000237818 -0.00744364 -9.78676e-06 -7.41549e-05 2.42713e-05)
(-1.9955e-05 0.00028921 -0.00744156 -1.30909e-05 -8.93673e-05 3.30458e-05)
(-2.65887e-05 0.000356824 -0.00743822 -1.65609e-05 -0.000106236 4.31496e-05)
(-3.45517e-05 0.000444671 -0.00743284 -1.99371e-05 -0.000124874 5.44888e-05)
(-4.39451e-05 0.000556753 -0.00742432 -2.28004e-05 -0.00014523 6.67454e-05)
(-5.48328e-05 0.000696956 -0.00741107 -2.4639e-05 -0.000166984 7.94718e-05)
(-6.70647e-05 0.000868971 -0.00739092 -2.48002e-05 -0.000189264 9.18649e-05)
(-8.03093e-05 0.00107605 -0.00736103 -2.27202e-05 -0.000210611 0.00010303)
(-9.36034e-05 0.00132291 -0.00731769 -1.6905e-05 -0.000230867 0.000110508)
(-0.000106336 0.00161369 -0.00725598 -6.47836e-06 -0.000249228 0.000112815)
(-0.000117415 0.00194991 -0.00716981 8.20905e-06 -0.000262184 0.000109206)
(-0.000125247 0.00233182 -0.00705212 2.58986e-05 -0.000266122 9.93486e-05)
(-0.00012841 0.00275736 -0.00689503 4.39295e-05 -0.00025845 8.44807e-05)
(-0.000126518 0.00322137 -0.00669021 5.83611e-05 -0.000239168 6.8157e-05)
(-0.000120779 0.00371533 -0.00642958 6.50606e-05 -0.000211995 5.57184e-05)
(-0.000113413 0.00422722 -0.00610618 6.03857e-05 -0.000183227 5.30272e-05)
(-0.000111771 0.00474235 -0.00571568 5.05588e-05 -0.000169603 6.12123e-05)
(-0.000109004 0.00524412 -0.00524412 5.45019e-05 -0.000163505 5.45018e-05)
(-6.4089e-05 0.00479182 -0.00392425 5.44198e-05 -9.35593e-05 9.66921e-06)
(-2.20269e-05 0.00339228 -0.00222353 4.09118e-05 -2.30238e-05 -1.88849e-05)
(-5.35817e-06 0.00152925 -0.000776821 1.75201e-05 8.85814e-07 -1.21619e-05)
(-8.80222e-07 0.000364612 -0.000137064 3.14258e-06 1.08217e-06 -2.26236e-06)
(-5.73033e-08 3.95669e-05 -1.01709e-05 1.83824e-07 1.03643e-07 -1.26521e-07)
(-9.17315e-10 1.44248e-06 -2.13695e-07 2.1896e-09 9.67925e-10 -1.27229e-09)
(-1.15795e-12 7.11407e-09 -3.39185e-10 6.3979e-13 -1.76201e-11 5.18155e-13)