/*--------------------------------*- C++ -*----------------------------------*\
| =========                 |                                                 |
| \\      /  F ield         | OpenFOAM: The Open Source CFD Toolbox           |
|  \\    /   O peration     | Version:  2506                                  |
|   \\  /    A nd           | Website:  www.openfoam.com                      |
|    \\/     M anipulation  |                                                 |
\*---------------------------------------------------------------------------*/
FoamFile
{
    version     2.0;
    format      ascii;
    arch        "LSB;label=32;scalar=64";
    class       volSymmTensorField;
    location    "2137";
    object      Tij7;
}
// * * * * * * * * * * * * * * * * * * * * * * * * * * * * * * * * * * * * * //

dimensions      [0 0 0 0 0 0 0];

internalField   nonuniform List<symmTensor> 
2304
(
(-1.31248e-10 4.95995e-13 -6.72326e-14 -1.8529e-15 5.33624e-14 1.3125e-10)
(-1.38312e-10 1.42779e-12 -5.56405e-14 -1.45985e-14 1.40044e-13 1.38326e-10)
(-1.49108e-10 2.20892e-12 -3.8934e-14 -3.25059e-14 1.80699e-13 1.4914e-10)
(-1.60239e-10 2.81703e-12 -2.35649e-14 -4.93261e-14 1.78484e-13 1.60289e-10)
(-1.69776e-10 3.27716e-12 -1.31985e-14 -6.312e-14 1.53674e-13 1.69839e-10)
(-1.77269e-10 3.63781e-12 -7.31514e-15 -7.45664e-14 1.24193e-13 1.77343e-10)
(-1.82958e-10 3.93508e-12 -4.15437e-15 -8.45846e-14 9.75391e-14 1.83042e-10)
(-1.87184e-10 4.18905e-12 -2.31442e-15 -9.37186e-14 7.42647e-14 1.87278e-10)
(-1.90188e-10 4.40857e-12 -1.24544e-15 -1.02176e-13 5.29761e-14 1.9029e-10)
(-1.92127e-10 4.59931e-12 -8.55371e-16 -1.10096e-13 3.28387e-14 1.92237e-10)
(-1.93132e-10 4.76672e-12 -1.19787e-15 -1.17647e-13 1.39184e-14 1.9325e-10)
(-1.93339e-10 4.91655e-12 -2.22351e-15 -1.25026e-13 -3.36997e-15 1.93464e-10)
(-1.92889e-10 5.05378e-12 -3.79746e-15 -1.3241e-13 -1.87903e-14 1.93021e-10)
(-1.9191e-10 5.18177e-12 -5.68997e-15 -1.39908e-13 -3.24772e-14 1.9205e-10)
(-1.90506e-10 5.30183e-12 -7.66944e-15 -1.47541e-13 -4.48393e-14 1.90653e-10)
(-1.88753e-10 5.41333e-12 -9.46777e-15 -1.55234e-13 -5.63877e-14 1.88909e-10)
(-1.86703e-10 5.51364e-12 -1.08111e-14 -1.62802e-13 -6.76044e-14 1.86866e-10)
(-1.84389e-10 5.59895e-12 -1.15102e-14 -1.69977e-13 -7.86782e-14 1.84559e-10)
(-1.81843e-10 5.66508e-12 -1.13741e-14 -1.76444e-13 -8.94721e-14 1.82019e-10)
(-1.79101e-10 5.70785e-12 -1.02335e-14 -1.8185e-13 -9.97855e-14 1.79283e-10)
(-1.76201e-10 5.72316e-12 -7.90179e-15 -1.85824e-13 -1.09707e-13 1.76387e-10)
(-1.7317e-10 5.70663e-12 -4.1783e-15 -1.87973e-13 -1.19992e-13 1.73358e-10)
(-1.70001e-10 5.65325e-12 1.07626e-15 -1.87891e-13 -1.32264e-13 1.70189e-10)
(-1.66643e-10 5.55747e-12 7.89112e-15 -1.85207e-13 -1.48985e-13 1.66828e-10)
(-1.62984e-10 5.41277e-12 1.64213e-14 -1.79577e-13 -1.73126e-13 1.63164e-10)
(-1.58863e-10 5.21232e-12 2.65058e-14 -1.70748e-13 -2.07632e-13 1.59034e-10)
(-1.54083e-10 4.95073e-12 3.77683e-14 -1.58651e-13 -2.54944e-13 1.54242e-10)
(-1.48435e-10 4.6257e-12 4.94883e-14 -1.43485e-13 -3.16302e-13 1.48578e-10)
(-1.41732e-10 4.23975e-12 6.08069e-14 -1.25759e-13 -3.91121e-13 1.41858e-10)
(-1.33848e-10 3.80064e-12 7.10478e-14 -1.06236e-13 -4.76919e-13 1.33954e-10)
(-1.24739e-10 3.32036e-12 8.03542e-14 -8.57944e-14 -5.70537e-13 1.24825e-10)
(-1.14426e-10 2.80745e-12 9.07407e-14 -6.49785e-14 -6.70637e-13 1.14491e-10)
(-1.02937e-10 2.27386e-12 9.89627e-14 -4.44506e-14 -7.73584e-13 1.02982e-10)
(-9.04087e-11 1.74291e-12 1.02855e-13 -2.52568e-14 -8.70602e-13 9.04339e-11)
(-7.7119e-11 1.24277e-12 1.00912e-13 -8.36949e-15 -9.49854e-13 7.71274e-11)
(-6.34947e-11 8.02969e-13 9.20453e-14 5.47546e-15 -9.97326e-13 6.34893e-11)
(-5.01017e-11 4.49679e-13 7.61567e-14 1.58566e-14 -9.98852e-13 5.00859e-11)
(-3.75966e-11 1.99087e-13 5.49983e-14 2.26825e-14 -9.44688e-13 3.75739e-11)
(-2.66199e-11 5.08072e-14 3.24444e-14 2.61361e-14 -8.35308e-13 2.65937e-11)
(-1.76493e-11 -1.39667e-14 1.33813e-14 2.65923e-14 -6.84695e-13 1.76227e-11)
(-1.08761e-11 -2.6179e-14 1.40728e-15 2.46052e-14 -5.1738e-13 1.08515e-11)
(-6.173e-12 -1.73139e-14 -2.79625e-15 2.09512e-14 -3.5944e-13 6.15204e-12)
(-3.17693e-12 -7.28254e-15 -2.44646e-15 1.65155e-14 -2.28586e-13 3.16042e-12)
(-1.43906e-12 -2.02994e-15 -1.12031e-15 1.20447e-14 -1.31121e-13 1.42702e-12)
(-5.42023e-13 -3.30683e-16 -3.15339e-16 8.00905e-15 -6.53993e-14 5.34014e-13)
(-1.51263e-13 -1.67887e-17 -4.78236e-17 4.6527e-15 -2.61177e-14 1.46611e-13)
(-2.39351e-14 1.70417e-18 -2.38364e-18 2.11895e-15 -6.79908e-15 2.18162e-14)
(-1.21301e-15 2.91688e-20 -2.91654e-20 6.06503e-16 -6.06503e-16 6.06502e-16)
(-1.53566e-07 4.68685e-10 -4.90162e-11 -1.19203e-12 1.91489e-10 1.53567e-07)
(-1.61808e-07 1.36243e-09 -1.18726e-11 -9.91194e-12 5.02489e-10 1.61817e-07)
(-1.74396e-07 2.14309e-09 4.22782e-11 -2.39234e-11 6.48122e-10 1.7442e-07)
(-1.87362e-07 2.78648e-09 9.41457e-11 -3.92478e-11 6.39717e-10 1.87401e-07)
(-1.9846e-07 3.30131e-09 1.32446e-10 -5.33794e-11 5.50149e-10 1.98513e-07)
(-2.07175e-07 3.71951e-09 1.5735e-10 -6.58155e-11 4.43828e-10 2.07241e-07)
(-2.13792e-07 4.06878e-09 1.73322e-10 -7.68591e-11 3.47677e-10 2.13869e-07)
(-2.18709e-07 4.36675e-09 1.84105e-10 -8.68599e-11 2.63676e-10 2.18796e-07)
(-2.22208e-07 4.62249e-09 1.91411e-10 -9.5996e-11 1.86825e-10 2.22304e-07)
(-2.24469e-07 4.84205e-09 1.95683e-10 -1.04386e-10 1.14132e-10 2.24573e-07)
(-2.25643e-07 5.03096e-09 1.96995e-10 -1.12159e-10 4.58325e-11 2.25756e-07)
(-2.25891e-07 5.19483e-09 1.9564e-10 -1.19465e-10 -1.65864e-11 2.26011e-07)
(-2.25375e-07 5.33859e-09 1.92155e-10 -1.26438e-10 -7.22891e-11 2.25501e-07)
(-2.24244e-07 5.46573e-09 1.87273e-10 -1.3316e-10 -1.21773e-10 2.24378e-07)
(-2.2262e-07 5.57788e-09 1.81729e-10 -1.3964e-10 -1.66524e-10 2.22759e-07)
(-2.20589e-07 5.67496e-09 1.76294e-10 -1.45808e-10 -2.08394e-10 2.20735e-07)
(-2.18212e-07 5.75514e-09 1.71689e-10 -1.51513e-10 -2.49126e-10 2.18364e-07)
(-2.15525e-07 5.81558e-09 1.6841e-10 -1.56548e-10 -2.89398e-10 2.15682e-07)
(-2.12564e-07 5.85322e-09 1.66917e-10 -1.60682e-10 -3.28691e-10 2.12725e-07)
(-2.09371e-07 5.86511e-09 1.6764e-10 -1.63675e-10 -3.66243e-10 2.09535e-07)
(-2.05989e-07 5.84846e-09 1.7107e-10 -1.65283e-10 -4.02315e-10 2.06155e-07)
(-2.02452e-07 5.80034e-09 1.7776e-10 -1.65251e-10 -4.39561e-10 2.02617e-07)
(-1.98755e-07 5.71716e-09 1.88124e-10 -1.63303e-10 -4.83761e-10 1.98919e-07)
(-1.94817e-07 5.59371e-09 2.02308e-10 -1.59126e-10 -5.43739e-10 1.94976e-07)
(-1.90522e-07 5.42488e-09 2.20519e-10 -1.52425e-10 -6.30214e-10 1.90674e-07)
(-1.85694e-07 5.20555e-09 2.42209e-10 -1.42924e-10 -7.5381e-10 1.85837e-07)
(-1.8011e-07 4.93145e-09 2.66163e-10 -1.30368e-10 -9.23385e-10 1.8024e-07)
(-1.73528e-07 4.60083e-09 2.9034e-10 -1.14554e-10 -1.14358e-09 1.73642e-07)
(-1.65732e-07 4.21566e-09 3.12313e-10 -9.53357e-11 -1.4125e-09 1.65827e-07)
(-1.56571e-07 3.78222e-09 3.30059e-10 -7.26242e-11 -1.72137e-09 1.56643e-07)
(-1.45991e-07 3.31077e-09 3.43822e-10 -4.62765e-11 -2.05879e-09 1.46038e-07)
(-1.34024e-07 2.81294e-09 3.56873e-10 -1.56113e-11 -2.42017e-09 1.3404e-07)
(-1.20698e-07 2.30306e-09 3.62649e-10 2.03759e-11 -2.79298e-09 1.20678e-07)
(-1.06169e-07 1.801e-09 3.56142e-10 6.23768e-11 -3.14617e-09 1.06107e-07)
(-9.07529e-08 1.32987e-09 3.34318e-10 1.10523e-10 -3.43777e-09 9.06423e-08)
(-7.49291e-08 9.13415e-10 2.95465e-10 1.63553e-10 -3.61758e-09 7.47655e-08)
(-5.93337e-08 5.72178e-10 2.40485e-10 2.1754e-10 -3.63364e-09 5.91161e-08)
(-4.47115e-08 3.18544e-10 1.74655e-10 2.65044e-10 -3.44818e-09 4.44465e-08)
(-3.18044e-08 1.52319e-10 1.07901e-10 2.96183e-10 -3.05916e-09 3.15082e-08)
(-2.11884e-08 5.97942e-11 5.19713e-11 3.0246e-10 -2.51425e-09 2.08859e-08)
(-1.31247e-08 1.82905e-11 1.52292e-11 2.81828e-10 -1.9026e-09 1.28429e-08)
(-7.50028e-09 4.0916e-12 -8.28438e-13 2.40824e-10 -1.32222e-09 7.25946e-09)
(-3.91189e-09 6.80566e-13 -3.65466e-12 1.90657e-10 -8.42305e-10 3.72123e-09)
(-1.82404e-09 1.95444e-13 -2.14178e-12 1.40544e-10 -4.86422e-10 1.6835e-09)
(-7.29232e-10 1.24415e-13 -7.15015e-13 9.51877e-11 -2.45669e-10 6.34044e-10)
(-2.18649e-10 5.09603e-14 -1.29169e-13 5.33123e-11 -9.38854e-11 1.65337e-10)
(-2.11184e-11 4.68702e-15 -4.68688e-15 1.05592e-11 -1.05592e-11 1.05592e-11)
(-2.39351e-14 2.38375e-18 -1.70405e-18 2.18161e-14 -6.79906e-15 2.11895e-15)
(-1.0899e-05 2.47509e-08 -1.02621e-08 -6.10378e-12 2.33917e-08 1.0899e-05)
(-1.14145e-05 7.27916e-08 -7.44348e-09 -1.37789e-10 6.10874e-08 1.14146e-05)
(-1.21972e-05 1.16869e-07 -3.38373e-09 -6.17856e-10 7.82797e-08 1.21979e-05)
(-1.29998e-05 1.5564e-07 2.77133e-10 -1.40904e-09 7.68551e-08 1.30012e-05)
(-1.36861e-05 1.88565e-07 2.74148e-09 -2.28039e-09 6.59005e-08 1.36884e-05)
(-1.42258e-05 2.16281e-07 4.13927e-09 -3.08943e-09 5.31203e-08 1.42288e-05)
(-1.4636e-05 2.39715e-07 4.9074e-09 -3.80726e-09 4.16436e-08 1.46398e-05)
(-1.49409e-05 2.59676e-07 5.38e-09 -4.44577e-09 3.16575e-08 1.49453e-05)
(-1.51578e-05 2.76697e-07 5.70538e-09 -5.01709e-09 2.2552e-08 1.51629e-05)
(-1.52985e-05 2.91166e-07 5.91468e-09 -5.52863e-09 1.39626e-08 1.5304e-05)
(-1.53725e-05 3.03409e-07 6.00293e-09 -5.98605e-09 5.90581e-09 1.53785e-05)
(-1.539e-05 3.13731e-07 5.98025e-09 -6.39542e-09 -1.45527e-09 1.53964e-05)
(-1.53608e-05 3.22395e-07 5.87825e-09 -6.76242e-09 -8.03242e-09 1.53675e-05)
(-1.52938e-05 3.29594e-07 5.74884e-09 -7.09061e-09 -1.38925e-08 1.53009e-05)
(-1.51962e-05 3.35433e-07 5.6492e-09 -7.38022e-09 -1.92173e-08 1.52036e-05)
(-1.50729e-05 3.39939e-07 5.64475e-09 -7.62812e-09 -2.42317e-08 1.50805e-05)
(-1.4927e-05 3.43062e-07 5.79941e-09 -7.82812e-09 -2.91477e-08 1.49348e-05)
(-1.47604e-05 3.44717e-07 6.15734e-09 -7.97274e-09 -3.40493e-08 1.47684e-05)
(-1.45747e-05 3.44812e-07 6.75603e-09 -8.05488e-09 -3.88749e-08 1.45827e-05)
(-1.4372e-05 3.4327e-07 7.62669e-09 -8.06826e-09 -4.35282e-08 1.438e-05)
(-1.41545e-05 3.40031e-07 8.80291e-09 -8.00704e-09 -4.80287e-08 1.41625e-05)
(-1.3924e-05 3.35032e-07 1.03244e-08 -7.8641e-09 -5.26751e-08 1.39318e-05)
(-1.36801e-05 3.28183e-07 1.22211e-08 -7.62857e-09 -5.81402e-08 1.36877e-05)
(-1.34254e-05 3.19455e-07 1.45114e-08 -7.28523e-09 -6.55113e-08 1.34327e-05)
(-1.3149e-05 3.08557e-07 1.72197e-08 -6.80557e-09 -7.60632e-08 1.31558e-05)
(-1.28384e-05 2.95273e-07 2.03016e-08 -6.15186e-09 -9.1078e-08 1.28445e-05)
(-1.24796e-05 2.79447e-07 2.36547e-08 -5.26813e-09 -1.11668e-07 1.24848e-05)
(-1.20572e-05 2.61002e-07 2.70963e-08 -4.0732e-09 -1.38489e-07 1.20613e-05)
(-1.15569e-05 2.39978e-07 3.03906e-08 -2.45837e-09 -1.71466e-07 1.15594e-05)
(-1.09676e-05 2.16553e-07 3.32985e-08 -2.90802e-10 -2.0972e-07 1.09679e-05)
(-1.0284e-05 1.91135e-07 3.57446e-08 2.5927e-09 -2.52022e-07 1.02814e-05)
(-9.50651e-06 1.64566e-07 3.79625e-08 6.45612e-09 -2.97976e-07 9.50006e-06)
(-8.63503e-06 1.37807e-07 3.93534e-08 1.16561e-08 -3.4629e-07 8.62337e-06)
(-7.67719e-06 1.11662e-07 3.9442e-08 1.85307e-08 -3.93464e-07 7.65866e-06)
(-6.65026e-06 8.70039e-08 3.79135e-08 2.73156e-08 -4.34609e-07 6.62294e-06)
(-5.58147e-06 6.4728e-08 3.45494e-08 3.79421e-08 -4.63545e-07 5.54353e-06)
(-4.50855e-06 4.56083e-08 2.93463e-08 4.97109e-08 -4.73287e-07 4.45884e-06)
(-3.47837e-06 3.01464e-08 2.26933e-08 6.10124e-08 -4.57803e-07 3.41736e-06)
(-2.54187e-06 1.84651e-08 1.54541e-08 6.94298e-08 -4.14841e-07 2.47244e-06)
(-1.74479e-06 1.03034e-08 8.79405e-09 7.25333e-08 -3.48476e-07 1.67226e-06)
(-1.11674e-06 5.12977e-09 3.74471e-09 6.91913e-08 -2.69289e-07 1.04755e-06)
(-6.63365e-07 2.20078e-09 9.44538e-10 6.05403e-08 -1.91052e-07 6.02825e-07)
(-3.62079e-07 7.90396e-10 -3.81779e-11 4.88766e-08 -1.23729e-07 3.13202e-07)
(-1.75959e-07 2.39953e-10 -1.56158e-10 3.58536e-08 -7.08752e-08 1.40105e-07)
(-6.67987e-08 6.03374e-11 -6.70022e-11 2.11447e-08 -3.10699e-08 4.5654e-08)
(-1.13936e-08 8.02445e-12 -8.02437e-12 5.6968e-09 -5.6968e-09 5.6968e-09)
(-2.18649e-10 1.2917e-13 -5.09586e-14 1.65337e-10 -9.38853e-11 5.33121e-11)
(-1.51263e-13 4.78242e-17 1.67898e-17 1.46611e-13 -2.61177e-14 4.65269e-15)
(-0.000139366 2.0274e-07 -6.33364e-07 1.06693e-09 4.36582e-07 0.000139365)
(-0.000144212 6.1204e-07 -6.15022e-07 6.21027e-09 1.12962e-06 0.000144205)
(-0.000151466 1.02341e-06 -5.87578e-07 6.49872e-09 1.42933e-06 0.00015146)
(-0.000158795 1.4202e-06 -5.68712e-07 -6.54765e-10 1.38821e-06 0.000158795)
(-0.00016499 1.77958e-06 -5.63144e-07 -1.08134e-08 1.18204e-06 0.000165001)
(-0.000169819 2.09108e-06 -5.66688e-07 -2.05196e-08 9.4938e-07 0.00016984)
(-0.000173462 2.35569e-06 -5.73309e-07 -2.88714e-08 7.43495e-07 0.000173491)
(-0.000176151 2.57944e-06 -5.79131e-07 -3.60063e-08 5.66185e-07 0.000176187)
(-0.000178052 2.76835e-06 -5.82766e-07 -4.21572e-08 4.06063e-07 0.000178095)
(-0.000179283 2.92708e-06 -5.84301e-07 -4.74499e-08 2.56245e-07 0.00017933)
(-0.000179935 3.05906e-06 -5.84258e-07 -5.19439e-08 1.16452e-07 0.000179987)
(-0.000180099 3.16701e-06 -5.82955e-07 -5.56888e-08 -1.1034e-08 0.000180155)
(-0.000179862 3.25311e-06 -5.80388e-07 -5.87358e-08 -1.25117e-07 0.000179921)
(-0.000179301 3.31903e-06 -5.76216e-07 -6.11227e-08 -2.2726e-07 0.000179363)
(-0.000178476 3.36587e-06 -5.69923e-07 -6.28612e-08 -3.20836e-07 0.000178539)
(-0.000177427 3.3943e-06 -5.60767e-07 -6.39382e-08 -4.09952e-07 0.000177491)
(-0.000176179 3.40469e-06 -5.47899e-07 -6.43258e-08 -4.98507e-07 0.000176243)
(-0.000174744 3.39737e-06 -5.30631e-07 -6.40023e-08 -5.88214e-07 0.000174808)
(-0.00017313 3.37274e-06 -5.08293e-07 -6.297e-08 -6.78235e-07 0.000173193)
(-0.000171347 3.33138e-06 -4.80284e-07 -6.1253e-08 -7.67052e-07 0.000171409)
(-0.000169406 3.27403e-06 -4.46002e-07 -5.88738e-08 -8.55066e-07 0.000169465)
(-0.00016731 3.2015e-06 -4.04798e-07 -5.58094e-08 -9.47489e-07 0.000167366)
(-0.000165054 3.11447e-06 -3.56131e-07 -5.19225e-08 -1.05641e-06 0.000165106)
(-0.000162693 3.01392e-06 -2.99681e-07 -4.68842e-08 -1.20126e-06 0.00016274)
(-0.000160094 2.89782e-06 -2.34844e-07 -4.00522e-08 -1.40491e-06 0.000160134)
(-0.000157143 2.76581e-06 -1.61824e-07 -3.04102e-08 -1.69171e-06 0.000157174)
(-0.00015371 2.6176e-06 -8.14903e-08 -1.62863e-08 -2.08402e-06 0.000153726)
(-0.000149644 2.45286e-06 4.22471e-09 4.89e-09 -2.59778e-06 0.000149639)
(-0.000144795 2.271e-06 9.2425e-08 3.67584e-08 -3.2383e-06 0.000144758)
(-0.000139023 2.0707e-06 1.79128e-07 8.40746e-08 -3.99847e-06 0.000138939)
(-0.000132225 1.85201e-06 2.60595e-07 1.52971e-07 -4.86463e-06 0.000132072)
(-0.000124349 1.627e-06 3.37224e-07 2.52799e-07 -5.83653e-06 0.000124097)
(-0.000115347 1.41046e-06 4.03441e-07 3.96408e-07 -6.90063e-06 0.000114951)
(-0.000105231 1.20561e-06 4.54136e-07 5.97959e-07 -8.00599e-06 0.000104633)
(-9.40886e-05 1.01476e-06 4.84813e-07 8.71167e-07 -9.07333e-06 9.32175e-05)
(-8.20917e-05 8.39916e-07 4.90925e-07 1.22385e-06 -9.98845e-06 8.08679e-05)
(-6.95121e-05 6.80815e-07 4.68914e-07 1.64722e-06 -1.05992e-05 6.78649e-05)
(-5.6738e-05 5.34343e-07 4.1776e-07 2.10234e-06 -1.07344e-05 5.46356e-05)
(-4.42714e-05 3.96385e-07 3.40283e-07 2.51238e-06 -1.02534e-05 4.1759e-05)
(-3.26925e-05 2.66484e-07 2.43761e-07 2.77381e-06 -9.11566e-06 2.99187e-05)
(-2.25781e-05 1.53776e-07 1.39573e-07 2.79437e-06 -7.43776e-06 1.97837e-05)
(-1.43747e-05 7.01436e-08 5.63318e-08 2.54566e-06 -5.4882e-06 1.1829e-05)
(-8.14395e-06 2.36401e-08 1.18744e-08 2.04504e-06 -3.53175e-06 6.09891e-06)
(-3.65296e-06 5.81075e-09 -1.16811e-09 1.29829e-06 -1.74844e-06 2.35467e-06)
(-9.22628e-07 9.7941e-10 -9.79405e-10 4.61314e-07 -4.61314e-07 4.61314e-07)
(-6.67986e-08 6.70026e-11 -6.03369e-11 4.5654e-08 -3.10699e-08 2.11446e-08)
(-7.29231e-10 7.15019e-13 -1.24408e-13 6.34044e-10 -2.45668e-10 9.51874e-11)
(-5.42022e-13 3.15341e-16 3.30688e-16 5.34013e-13 -6.53992e-14 8.00903e-15)
(-0.000529335 3.65597e-07 -3.6306e-06 9.33145e-09 2.2549e-06 0.000529326)
(-0.000540071 1.20867e-06 -3.44098e-06 5.88767e-08 5.77452e-06 0.000540012)
(-0.000555943 2.26449e-06 -3.14604e-06 8.38121e-08 7.20423e-06 0.000555859)
(-0.000571763 3.44346e-06 -2.87269e-06 6.23497e-08 6.90952e-06 0.0005717)
(-0.000584994 4.59037e-06 -2.66935e-06 2.16073e-08 5.82708e-06 0.000584972)
(-0.000595199 5.60744e-06 -2.53114e-06 -1.69699e-08 4.6438e-06 0.000595216)
(-0.000602809 6.46877e-06 -2.43531e-06 -4.81096e-08 3.61018e-06 0.000602857)
(-0.000608353 7.18621e-06 -2.36373e-06 -7.28964e-08 2.72901e-06 0.000608426)
(-0.000612231 7.78039e-06 -2.30721e-06 -9.2897e-08 1.94259e-06 0.000612324)
(-0.00061472 8.26798e-06 -2.26268e-06 -1.08922e-07 1.21504e-06 0.000614829)
(-0.000616041 8.65993e-06 -2.22901e-06 -1.21314e-07 5.41478e-07 0.000616162)
(-0.00061639 8.96324e-06 -2.2043e-06 -1.30322e-07 -7.07308e-08 0.00061652)
(-0.000615951 9.18283e-06 -2.18549e-06 -1.36212e-07 -6.19097e-07 0.000616088)
(-0.000614883 9.32246e-06 -2.16849e-06 -1.39209e-07 -1.11235e-06 0.000615023)
(-0.000613311 9.38534e-06 -2.1491e-06 -1.39445e-07 -1.5677e-06 0.00061345)
(-0.000611323 9.37479e-06 -2.12279e-06 -1.3697e-07 -2.00576e-06 0.00061146)
(-0.000608974 9.29524e-06 -2.0853e-06 -1.31798e-07 -2.44634e-06 0.000609106)
(-0.000606284 9.15226e-06 -2.03364e-06 -1.23999e-07 -2.89965e-06 0.000606408)
(-0.000603255 8.95227e-06 -1.96512e-06 -1.13763e-07 -3.3646e-06 0.000603369)
(-0.000599873 8.70213e-06 -1.87736e-06 -1.01346e-07 -3.83735e-06 0.000599974)
(-0.000596113 8.40845e-06 -1.76784e-06 -8.6891e-08 -4.3234e-06 0.0005962)
(-0.000591932 8.07762e-06 -1.6333e-06 -7.01004e-08 -4.85175e-06 0.000592002)
(-0.000587308 7.7152e-06 -1.46928e-06 -4.97821e-08 -5.4843e-06 0.000587357)
(-0.000582328 7.32486e-06 -1.27264e-06 -2.33042e-08 -6.31524e-06 0.000582352)
(-0.000576656 6.90564e-06 -1.04374e-06 1.41427e-08 -7.46026e-06 0.000576641)
(-0.000570026 6.46057e-06 -7.84622e-07 7.07051e-08 -9.0483e-06 0.000569955)
(-0.000562139 5.99253e-06 -4.99191e-07 1.59718e-07 -1.12044e-05 0.000561979)
(-0.000552644 5.50353e-06 -1.95117e-07 3.01841e-07 -1.40334e-05 0.000552342)
(-0.000541157 4.99154e-06 1.17346e-07 5.27166e-07 -1.76048e-05 0.00054063)
(-0.000527275 4.44227e-06 4.22644e-07 8.77374e-07 -2.19478e-05 0.000526398)
(-0.000510597 3.82472e-06 7.06395e-07 1.41008e-06 -2.70715e-05 0.000509187)
(-0.000490651 3.20338e-06 1.03652e-06 2.20996e-06 -3.30167e-05 0.000488441)
(-0.000467338 2.69145e-06 1.32881e-06 3.39556e-06 -3.97889e-05 0.000463942)
(-0.000440579 2.28905e-06 1.56151e-06 5.11579e-06 -4.72622e-05 0.000435463)
(-0.000410373 1.99989e-06 1.7306e-06 7.54573e-06 -5.51773e-05 0.000402827)
(-0.000376806 1.8292e-06 1.84077e-06 1.08593e-05 -6.30745e-05 0.000365946)
(-0.000340017 1.75997e-06 1.90645e-06 1.51561e-05 -7.02007e-05 0.000324861)
(-0.000300151 1.73451e-06 1.94097e-06 2.03314e-05 -7.54577e-05 0.000279819)
(-0.000257311 1.65094e-06 1.92888e-06 2.59008e-05 -7.74497e-05 0.00023141)
(-0.000211554 1.39229e-06 1.78975e-06 3.08268e-05 -7.46667e-05 0.000180727)
(-0.000162958 9.45802e-07 1.33699e-06 3.34163e-05 -6.58095e-05 0.000129541)
(-0.000112464 4.20809e-07 6.70695e-07 3.16319e-05 -5.05707e-05 8.08325e-05)
(-6.29688e-05 9.05982e-08 1.64015e-07 2.3819e-05 -3.05375e-05 3.91498e-05)
(-2.28325e-05 5.67244e-09 -5.67241e-09 1.14163e-05 -1.14163e-05 1.14162e-05)
(-3.65296e-06 1.16812e-09 -5.81073e-09 2.35467e-06 -1.74844e-06 1.29829e-06)
(-1.75958e-07 1.56159e-10 -2.39952e-10 1.40105e-07 -7.08751e-08 3.58536e-08)
(-1.82404e-09 2.14179e-12 -1.95424e-13 1.6835e-09 -4.86421e-10 1.40544e-10)
(-1.43906e-12 1.12031e-15 2.02995e-15 1.42702e-12 -1.3112e-13 1.20447e-14)
(-0.000941601 9.60872e-08 -2.81498e-06 2.95371e-08 5.27483e-06 0.000941571)
(-0.000951081 6.16768e-07 -2.24589e-06 1.89307e-07 1.34324e-05 0.000950892)
(-0.000965303 1.77953e-06 -1.41666e-06 2.836e-07 1.66413e-05 0.000965019)
(-0.000979775 3.38802e-06 -6.12452e-07 2.45459e-07 1.58738e-05 0.00097953)
(-0.000992145 5.08668e-06 3.64278e-08 1.53122e-07 1.33327e-05 0.000991991)
(-0.00100181 6.63479e-06 5.22633e-07 6.78155e-08 1.05772e-05 0.00100174)
(-0.00100903 7.94608e-06 8.85467e-07 3.68871e-09 8.16994e-06 0.00100902)
(-0.00101425 9.01991e-06 1.16215e-06 -4.31537e-08 6.1209e-06 0.00101429)
(-0.00101788 9.88293e-06 1.37607e-06 -7.76472e-08 4.30388e-06 0.00101795)
(-0.00102023 1.05593e-05 1.53932e-06 -1.02392e-07 2.63672e-06 0.00102033)
(-0.00102154 1.1064e-05 1.65987e-06 -1.18601e-07 1.10259e-06 0.00102166)
(-0.00102203 1.14046e-05 1.74641e-06 -1.27192e-07 -2.88902e-07 0.00102215)
(-0.00102187 1.15856e-05 1.80929e-06 -1.29102e-07 -1.53756e-06 0.001022)
(-0.00102125 1.16105e-05 1.86006e-06 -1.25149e-07 -2.66609e-06 0.00102137)
(-0.00102029 1.14836e-05 1.90933e-06 -1.15884e-07 -3.71472e-06 0.0010204)
(-0.00101911 1.12125e-05 1.96703e-06 -1.01603e-07 -4.73093e-06 0.00101921)
(-0.00101779 1.08097e-05 2.04117e-06 -8.24442e-08 -5.76113e-06 0.00101787)
(-0.00101634 1.0292e-05 2.13563e-06 -5.85722e-08 -6.83337e-06 0.0010164)
(-0.00101472 9.67775e-06 2.25295e-06 -3.02788e-08 -7.95474e-06 0.00101475)
(-0.00101283 8.98364e-06 2.39513e-06 2.23067e-09 -9.12977e-06 0.00101283)
(-0.00101052 8.22183e-06 2.56536e-06 3.94314e-08 -1.03862e-05 0.00101048)
(-0.00100761 7.39832e-06 2.76979e-06 8.3511e-08 -1.18047e-05 0.00100753)
(-0.00100408 6.5164e-06 3.01927e-06 1.39675e-07 -1.35357e-05 0.00100394)
(-0.000999853 5.57897e-06 3.32363e-06 2.1785e-07 -1.57948e-05 0.000999635)
(-0.000994548 4.58507e-06 3.68234e-06 3.35699e-07 -1.88525e-05 0.000994212)
(-0.000987891 3.53255e-06 4.09139e-06 5.23089e-07 -2.30138e-05 0.000987368)
(-0.000979602 2.42159e-06 4.54356e-06 8.28101e-07 -2.8584e-05 0.000978774)
(-0.000969363 1.25315e-06 5.02424e-06 1.32474e-06 -3.58395e-05 0.000968039)
(-0.000956833 2.20618e-08 5.51697e-06 2.12167e-06 -4.50073e-05 0.000954712)
(-0.000941645 -1.31301e-06 5.99227e-06 3.37353e-06 -5.62689e-05 0.000938271)
(-0.00092351 -2.96529e-06 6.36739e-06 5.30699e-06 -6.98499e-05 0.000918203)
(-0.000902163 -4.62029e-06 6.56747e-06 8.24033e-06 -8.59185e-05 0.000893922)
(-0.000877454 -5.89645e-06 6.6523e-06 1.26108e-05 -0.000104556 0.000864843)
(-0.000849563 -6.8748e-06 6.61724e-06 1.90118e-05 -0.000125794 0.000830551)
(-0.000818823 -7.50702e-06 6.466e-06 2.81975e-05 -0.000149438 0.000790626)
(-0.000785573 -7.66969e-06 6.22626e-06 4.10523e-05 -0.000174931 0.00074452)
(-0.000749763 -7.2235e-06 5.94693e-06 5.8437e-05 -0.000201064 0.000691326)
(-0.000710249 -6.06257e-06 5.69262e-06 8.08081e-05 -0.000225562 0.000629441)
(-0.000663672 -4.21972e-06 5.53585e-06 0.000107443 -0.00024447 0.000556229)
(-0.000602768 -2.14432e-06 5.49417e-06 0.00013496 -0.000251269 0.000467808)
(-0.000513406 -5.61649e-07 4.63246e-06 0.000154284 -0.000235396 0.000359122)
(-0.000377962 -4.1315e-07 2.45354e-06 0.000148301 -0.000184555 0.00022966)
(-0.000205182 -4.50087e-07 4.50086e-07 0.000102591 -0.000102591 0.000102591)
(-6.29688e-05 -1.64014e-07 -9.05984e-08 3.91498e-05 -3.05375e-05 2.3819e-05)
(-8.14394e-06 -1.18744e-08 -2.364e-08 6.0989e-06 -3.53174e-06 2.04504e-06)
(-3.62078e-07 3.81801e-11 -7.90392e-10 3.13202e-07 -1.23728e-07 4.88765e-08)
(-3.91188e-09 3.65468e-12 -6.80515e-13 3.72123e-09 -8.42304e-10 1.90656e-10)
(-3.17693e-12 2.44647e-15 7.28258e-15 3.16041e-12 -2.28585e-13 1.65155e-14)
(-0.00115428 -3.26315e-07 -8.97786e-07 5.93156e-08 8.28042e-06 0.00115422)
(-0.0011543 -5.28112e-07 -4.34982e-07 3.81445e-07 2.09863e-05 0.00115391)
(-0.00115432 1.65172e-07 1.65499e-07 5.78875e-07 2.58437e-05 0.00115374)
(-0.00115434 1.51988e-06 7.20396e-07 5.1977e-07 2.45353e-05 0.00115382)
(-0.00115434 3.08924e-06 1.15173e-06 3.5729e-07 2.05359e-05 0.00115398)
(-0.00115434 4.55759e-06 1.47361e-06 2.104e-07 1.62298e-05 0.00115413)
(-0.00115433 5.79716e-06 1.72536e-06 1.05805e-07 1.24704e-05 0.00115423)
(-0.00115433 6.78678e-06 1.93665e-06 3.49032e-08 9.28096e-06 0.00115429)
(-0.00115432 7.54385e-06 2.12341e-06 -1.28115e-08 6.47625e-06 0.00115433)
(-0.00115431 8.08692e-06 2.29188e-06 -4.31808e-08 3.9279e-06 0.00115435)
(-0.00115431 8.42569e-06 2.44545e-06 -5.92387e-08 1.59855e-06 0.00115437)
(-0.0011543 8.56228e-06 2.58935e-06 -6.33033e-08 -5.10444e-07 0.00115437)
(-0.00115431 8.49588e-06 2.73107e-06 -5.75912e-08 -2.4081e-06 0.00115436)
(-0.00115431 8.22654e-06 2.87975e-06 -4.39794e-08 -4.13281e-06 0.00115435)
(-0.00115431 7.7579e-06 3.04328e-06 -2.37439e-08 -5.74567e-06 0.00115433)
(-0.00115432 7.09989e-06 3.22895e-06 2.46479e-09 -7.31738e-06 0.00115431)
(-0.00115432 6.27155e-06 3.44256e-06 3.4543e-08 -8.91838e-06 0.00115429)
(-0.00115432 5.29759e-06 3.68637e-06 7.26942e-08 -1.05986e-05 0.00115425)
(-0.00115432 4.20155e-06 3.96395e-06 1.17327e-07 -1.23867e-05 0.00115421)
(-0.00115432 2.99975e-06 4.28187e-06 1.69526e-07 -1.4317e-05 0.00115415)
(-0.00115432 1.69553e-06 4.65156e-06 2.32174e-07 -1.64636e-05 0.00115408)
(-0.0011543 2.77808e-07 5.0892e-06 3.11927e-07 -1.89761e-05 0.00115399)
(-0.00115428 -1.27243e-06 5.61318e-06 4.22248e-07 -2.21036e-05 0.00115386)
(-0.00115425 -2.97134e-06 6.24334e-06 5.87619e-07 -2.619e-05 0.00115366)
(-0.0011542 -4.84029e-06 6.99943e-06 8.50657e-07 -3.16653e-05 0.00115335)
(-0.00115412 -6.90865e-06 7.89042e-06 1.2827e-06 -3.90232e-05 0.00115284)
(-0.00115402 -9.20383e-06 8.92086e-06 1.99839e-06 -4.87846e-05 0.00115202)
(-0.00115387 -1.17513e-05 1.00834e-05 3.17504e-06 -6.14725e-05 0.00115069)
(-0.00115366 -1.45737e-05 1.13669e-05 5.07699e-06 -7.75958e-05 0.00114859)
(-0.00115339 -1.76748e-05 1.27348e-05 8.08664e-06 -9.76468e-05 0.0011453)
(-0.00115305 -2.10929e-05 1.40475e-05 1.27539e-05 -0.000122158 0.0011403)
(-0.00113749 -2.43251e-05 1.43859e-05 1.96326e-05 -0.000149798 0.00111786)
(-0.0011194 -2.75029e-05 1.43389e-05 2.97733e-05 -0.000181812 0.00108963)
(-0.00110205 -3.04828e-05 1.39891e-05 4.4494e-05 -0.000218598 0.00105755)
(-0.00108691 -3.29305e-05 1.32799e-05 6.54846e-05 -0.000260207 0.00102142)
(-0.00107527 -3.4308e-05 1.2219e-05 9.48077e-05 -0.000306272 0.000980458)
(-0.00106711 -3.38941e-05 1.09724e-05 0.000134625 -0.000355396 0.000932482)
(-0.00105936 -3.0955e-05 9.94283e-06 0.000186355 -0.000404056 0.000873002)
(-0.00104324 -2.51555e-05 9.6996e-06 0.000248722 -0.000444872 0.000794518)
(-0.00100139 -1.75857e-05 1.07407e-05 0.000314227 -0.000464754 0.000687159)
(-0.000902785 -1.00983e-05 9.84182e-06 0.000362412 -0.000442538 0.000540373)
(-0.000694124 -4.9807e-06 4.98069e-06 0.000347062 -0.000347062 0.000347062)
(-0.000377961 -2.45354e-06 4.13146e-07 0.00022966 -0.000184554 0.000148301)
(-0.000112464 -6.70694e-07 -4.20809e-07 8.08324e-05 -5.05706e-05 3.16318e-05)
(-1.43747e-05 -5.63317e-08 -7.01435e-08 1.1829e-05 -5.48819e-06 2.54565e-06)
(-6.63365e-07 -9.44534e-10 -2.20078e-09 6.02825e-07 -1.91052e-07 6.05401e-08)
(-7.50027e-09 8.2847e-13 -4.09149e-12 7.25945e-09 -1.32222e-09 2.40823e-10)
(-6.17299e-12 2.79626e-15 1.73139e-14 6.15204e-12 -3.59439e-13 2.09512e-14)
(-0.00115406 -7.46352e-07 -6.89007e-06 8.97605e-08 1.02005e-05 0.00115397)
(-0.0011541 -1.73659e-06 -6.43104e-06 5.84404e-07 2.60125e-05 0.00115352)
(-0.00115416 -1.69866e-06 -5.79389e-06 9.06655e-07 3.23722e-05 0.00115325)
(-0.00115422 -8.52564e-07 -5.1811e-06 8.3889e-07 3.11137e-05 0.00115338)
(-0.00115426 3.21951e-07 -4.67172e-06 6.01031e-07 2.63356e-05 0.00115365)
(-0.00115428 1.46693e-06 -4.25845e-06 3.7919e-07 2.09746e-05 0.0011539)
(-0.0011543 2.42563e-06 -3.90888e-06 2.21211e-07 1.61693e-05 0.00115408)
(-0.00115431 3.15752e-06 -3.59808e-06 1.16502e-07 1.2028e-05 0.0011542)
(-0.00115432 3.6662e-06 -3.31235e-06 4.88385e-08 8.36601e-06 0.00115428)
(-0.00115433 3.959e-06 -3.04595e-06 8.32758e-09 5.03901e-06 0.00115433)
(-0.00115434 4.03609e-06 -2.79474e-06 -1.06834e-08 1.99919e-06 0.00115435)
(-0.00115435 3.89203e-06 -2.5518e-06 -1.26124e-08 -7.58706e-07 0.00115436)
(-0.00115436 3.52128e-06 -2.30767e-06 -1.53895e-09 -3.25225e-06 0.00115436)
(-0.00115437 2.92244e-06 -2.05154e-06 1.91718e-08 -5.533e-06 0.00115435)
(-0.00115438 2.10065e-06 -1.77521e-06 4.73002e-08 -7.67876e-06 0.00115433)
(-0.00115439 1.06914e-06 -1.47181e-06 8.18772e-08 -9.77896e-06 0.00115431)
(-0.0011544 -1.49496e-07 -1.13588e-06 1.23183e-07 -1.19253e-05 0.00115427)
(-0.0011544 -1.53097e-06 -7.65159e-07 1.7246e-07 -1.41926e-05 0.00115423)
(-0.0011544 -3.06007e-06 -3.53333e-07 2.31808e-07 -1.66415e-05 0.00115417)
(-0.00115439 -4.73737e-06 1.11747e-07 3.05005e-07 -1.935e-05 0.00115409)
(-0.00115438 -6.58241e-06 6.48921e-07 3.99294e-07 -2.24483e-05 0.00115398)
(-0.00115436 -8.63013e-06 1.28252e-06 5.28926e-07 -2.61579e-05 0.00115383)
(-0.00115432 -1.09226e-05 2.03838e-06 7.20791e-07 -3.08148e-05 0.0011536)
(-0.00115427 -1.34984e-05 2.93846e-06 1.02227e-06 -3.68571e-05 0.00115325)
(-0.00115418 -1.63933e-05 4.00658e-06 1.51387e-06 -4.4814e-05 0.00115267)
(-0.00115405 -1.96387e-05 5.24802e-06 2.32707e-06 -5.52741e-05 0.00115173)
(-0.00115386 -2.3255e-05 6.65826e-06 3.66807e-06 -6.88457e-05 0.00115019)
(-0.00115358 -2.7244e-05 8.20585e-06 5.84774e-06 -8.61225e-05 0.00114773)
(-0.00115319 -3.15732e-05 9.84014e-06 9.31737e-06 -0.000107655 0.00114388)
(-0.00115267 -3.61166e-05 1.146e-05 1.4711e-05 -0.000133917 0.00113796)
(-0.00115201 -4.04911e-05 1.29595e-05 2.28886e-05 -0.000165238 0.00112912)
(-0.00115125 -4.48902e-05 1.40103e-05 3.50164e-05 -0.000202054 0.00111624)
(-0.00115045 -4.94571e-05 1.43407e-05 5.26007e-05 -0.000244519 0.00109784)
(-0.00114965 -5.33829e-05 1.37868e-05 7.74344e-05 -0.000292101 0.00107221)
(-0.001149 -5.57278e-05 1.22585e-05 0.00011153 -0.000343683 0.00103747)
(-0.00114865 -5.54854e-05 9.97663e-06 0.000156891 -0.000397349 0.000991756)
(-0.0011487 -5.18744e-05 7.67368e-06 0.000215136 -0.000450255 0.000933568)
(-0.00114913 -4.48098e-05 6.53156e-06 0.00028707 -0.000498732 0.000862058)
(-0.00114967 -3.50993e-05 7.75334e-06 0.000372272 -0.000538517 0.000777396)
(-0.00115002 -2.48292e-05 1.31368e-05 0.00046886 -0.000565229 0.000681161)
(-0.00114791 -1.78952e-05 1.78952e-05 0.000573954 -0.000573954 0.000573954)
(-0.000902785 -9.84183e-06 1.00983e-05 0.000540373 -0.000442538 0.000362412)
(-0.000513406 -4.63246e-06 5.6164e-07 0.000359122 -0.000235396 0.000154284)
(-0.000162958 -1.33699e-06 -9.45803e-07 0.000129541 -6.58094e-05 3.34162e-05)
(-2.2578e-05 -1.39573e-07 -1.53776e-07 1.97837e-05 -7.43775e-06 2.79436e-06)
(-1.11674e-06 -3.7447e-09 -5.12975e-09 1.04755e-06 -2.69288e-07 6.91912e-08)
(-1.31247e-08 -1.52292e-11 -1.82903e-11 1.28428e-08 -1.9026e-09 2.81828e-10)
(-1.0876e-11 -1.40726e-15 2.61792e-14 1.08514e-11 -5.17379e-13 2.46051e-14)