/*--------------------------------*- C++ -*----------------------------------*\
| =========                 |                                                 |
| \\      /  F ield         | OpenFOAM: The Open Source CFD Toolbox           |
|  \\    /   O peration     | Version:  2506                                  |
|   \\  /    A nd           | Website:  www.openfoam.com                      |
|    \\/     M anipulation  |                                                 |
\*---------------------------------------------------------------------------*/
FoamFile
{
    version     2.0;
    format      ascii;
    arch        "LSB;label=32;scalar=64";
    class       volSymmTensorField;
    location    "2137";
    object      Tij8;
}
// * * * * * * * * * * * * * * * * * * * * * * * * * * * * * * * * * * * * * //

dimensions      [0 0 0 0 0 0 0];

internalField   nonuniform List<symmTensor> 
2304
(
(6.91912e-17 9.57023e-17 4.38782e-19 -6.2933e-19 1.17069e-16 -6.85619e-17)
(4.71041e-17 2.24425e-16 2.5569e-18 -4.09705e-18 2.67947e-16 -4.30071e-17)
(2.4569e-17 2.34073e-16 3.83727e-18 -6.26841e-18 2.77799e-16 -1.83006e-17)
(1.10295e-17 1.65541e-16 3.71027e-18 -5.33064e-18 2.2147e-16 -5.69885e-18)
(4.61264e-18 8.75266e-17 3.21767e-18 -3.07108e-18 1.70787e-16 -1.54155e-18)
(1.7583e-18 3.65981e-17 2.97488e-18 -1.29731e-18 1.46212e-16 -4.60987e-19)
(5.44279e-19 1.15832e-17 2.99676e-18 -3.48943e-19 1.39618e-16 -1.95336e-19)
(5.77023e-20 1.19149e-18 3.16356e-18 5.9604e-20 1.41382e-16 -1.17306e-19)
(-2.51743e-19 -5.42632e-18 3.41142e-18 3.34516e-19 1.47105e-16 -8.27731e-20)
(-6.20881e-19 -1.29608e-17 3.75757e-18 6.75499e-19 1.56873e-16 -5.46183e-20)
(-1.07932e-18 -2.19995e-17 4.24181e-18 1.11251e-18 1.718e-16 -3.3195e-20)
(-1.52756e-18 -3.10839e-17 4.88944e-18 1.57657e-18 1.92294e-16 -4.90147e-20)
(-1.83154e-18 -3.85366e-17 5.69613e-18 1.97991e-18 2.17549e-16 -1.48367e-19)
(-1.88022e-18 -4.30586e-17 6.63017e-18 2.24548e-18 2.45822e-16 -3.65257e-19)
(-1.60324e-18 -4.3697e-17 7.63679e-18 2.30657e-18 2.74776e-16 -7.03336e-19)
(-9.19053e-19 -3.85972e-17 8.62906e-18 2.03755e-18 3.01283e-16 -1.1185e-18)
(1.17527e-19 -2.76255e-17 9.49092e-18 1.40187e-18 3.2172e-16 -1.51939e-18)
(1.4462e-18 -1.05582e-17 1.00963e-17 3.59524e-19 3.32645e-16 -1.80573e-18)
(3.04245e-18 1.35407e-17 1.03031e-17 -1.16835e-18 3.30498e-16 -1.8741e-18)
(4.89903e-18 4.54067e-17 9.9571e-18 -3.24328e-18 3.11633e-16 -1.65575e-18)
(7.11376e-18 8.65363e-17 8.90369e-18 -5.96607e-18 2.72455e-16 -1.14769e-18)
(9.81764e-18 1.37268e-16 7.00959e-18 -9.34769e-18 2.09815e-16 -4.69952e-19)
(1.30816e-17 1.94518e-16 4.232e-18 -1.31435e-17 1.22707e-16 6.1881e-20)
(1.766e-17 2.62872e-16 6.31408e-19 -1.75776e-17 1.18907e-17 -8.2419e-20)
(2.42835e-17 3.4404e-16 -3.6405e-18 -2.2628e-17 -1.20596e-16 -1.6555e-18)
(3.33317e-17 4.32856e-16 -8.25493e-18 -2.77464e-17 -2.68759e-16 -5.58526e-18)
(4.50997e-17 5.24277e-16 -1.26881e-17 -3.23536e-17 -4.217e-16 -1.27461e-17)
(5.93821e-17 6.12206e-16 -1.63131e-17 -3.58224e-17 -5.64927e-16 -2.35597e-17)
(7.60058e-17 7.00452e-16 -1.85471e-17 -3.82208e-17 -6.83866e-16 -3.7785e-17)
(9.49806e-17 8.00978e-16 -1.90066e-17 -4.0117e-17 -7.68532e-16 -5.48637e-17)
(1.23458e-16 1.03789e-15 -1.73821e-17 -4.78171e-17 -8.29037e-16 -7.56406e-17)
(1.61553e-16 1.32322e-15 -1.36993e-17 -5.49412e-17 -8.70254e-16 -1.06612e-16)
(1.97474e-16 1.51682e-15 -7.88642e-18 -5.42705e-17 -8.65823e-16 -1.43204e-16)
(2.28172e-16 1.66023e-15 4.07404e-19 -4.90073e-17 -7.96389e-16 -1.79165e-16)
(2.45614e-16 1.71383e-15 1.01163e-17 -3.92594e-17 -6.6411e-16 -2.06355e-16)
(2.39905e-16 1.61412e-15 1.88932e-17 -2.59599e-17 -4.85392e-16 -2.13945e-16)
(2.04055e-16 1.31313e-15 2.32617e-17 -1.21969e-17 -2.92671e-16 -1.91858e-16)
(1.41848e-16 8.28559e-16 1.9944e-17 -2.42443e-18 -1.28822e-16 -1.39424e-16)
(7.2519e-17 2.74596e-16 8.48267e-18 7.38128e-19 -2.80005e-17 -7.32571e-17)
(2.22226e-17 -1.78095e-16 -6.94136e-18 -7.67673e-19 6.61266e-18 -2.14549e-17)
(3.04635e-18 -3.46556e-16 -1.65334e-17 -2.13749e-18 4.01596e-18 -9.08864e-19)
(2.58122e-18 -2.58838e-16 -1.51163e-17 -1.30418e-18 -2.13582e-18 -1.27705e-18)
(2.91641e-18 -1.21585e-16 -8.78709e-18 -2.94828e-19 -2.09494e-18 -2.62158e-18)
(1.33401e-18 -4.13946e-17 -3.80158e-18 -7.08659e-21 -6.26548e-19 -1.32693e-18)
(2.90778e-19 -1.06263e-17 -1.30115e-18 6.33125e-21 -7.4671e-20 -2.9711e-19)
(2.66236e-20 -1.9595e-18 -3.49063e-19 4.20601e-22 -1.27711e-21 -2.70442e-20)
(6.47266e-22 -2.21665e-19 -6.90827e-20 -2.87005e-23 1.4206e-22 -6.18566e-22)
(2.80533e-24 1.48889e-25 1.49024e-25 -1.40271e-24 1.40266e-24 -1.40262e-24)
(3.72614e-14 1.09003e-12 -4.24871e-16 -5.95786e-15 3.02571e-13 -3.13036e-14)
(4.48112e-14 2.5983e-12 -2.10319e-15 -3.96705e-14 7.08403e-13 -5.14075e-15)
(9.87765e-14 2.82383e-12 -1.0566e-15 -6.40272e-14 7.69483e-13 -3.47493e-14)
(1.79685e-13 2.17257e-12 2.26895e-15 -6.03442e-14 6.56509e-13 -1.19341e-13)
(2.46519e-13 1.32646e-12 5.20268e-15 -4.12298e-14 5.42932e-13 -2.05289e-13)
(2.89784e-13 7.12226e-13 6.96826e-15 -2.35838e-14 4.84897e-13 -2.66201e-13)
(3.17638e-13 3.75792e-13 8.03841e-15 -1.28785e-14 4.67748e-13 -3.0476e-13)
(3.36709e-13 2.06987e-13 8.85986e-15 -7.24251e-15 4.7029e-13 -3.29467e-13)
(3.47705e-13 9.21634e-14 9.66429e-15 -3.14766e-15 4.82627e-13 -3.44557e-13)
(3.49333e-13 -2.58857e-14 1.06093e-14 1.4963e-15 5.05363e-13 -3.50829e-13)
(3.4131e-13 -1.55086e-13 1.17989e-14 6.99649e-15 5.41276e-13 -3.48306e-13)
(3.2543e-13 -2.79418e-13 1.32834e-14 1.2626e-14 5.90997e-13 -3.38056e-13)
(3.04654e-13 -3.78807e-13 1.50505e-14 1.73937e-14 6.51781e-13 -3.22048e-13)
(2.8239e-13 -4.37849e-13 1.70262e-14 2.04378e-14 7.18323e-13 -3.02827e-13)
(2.61772e-13 -4.44043e-13 1.90828e-14 2.09627e-14 7.83746e-13 -2.82735e-13)
(2.46012e-13 -3.82934e-13 2.1026e-14 1.80101e-14 8.39281e-13 -2.64023e-13)
(2.3733e-13 -2.53619e-13 2.26044e-14 1.12772e-14 8.75298e-13 -2.48607e-13)
(2.37162e-13 -5.60664e-14 2.3565e-14 5.48407e-16 8.82976e-13 -2.3771e-13)
(2.47352e-13 2.17891e-13 2.36525e-14 -1.47646e-14 8.53548e-13 -2.32588e-13)
(2.70036e-13 5.80537e-13 2.26194e-14 -3.54164e-14 7.78387e-13 -2.34619e-13)
(3.08134e-13 1.05113e-12 2.02599e-14 -6.24716e-14 6.49305e-13 -2.45662e-13)
(3.64503e-13 1.63893e-12 1.64486e-14 -9.62879e-14 4.59501e-13 -2.68215e-13)
(4.41039e-13 2.33586e-12 1.12972e-14 -1.35973e-13 2.07206e-13 -3.05065e-13)
(5.41182e-13 3.16642e-12 5.36751e-15 -1.82132e-13 -1.04818e-13 -3.5905e-13)
(6.67632e-13 4.1259e-12 -3.43295e-16 -2.33169e-13 -4.69327e-13 -4.34463e-13)
(8.17774e-13 5.15461e-12 -4.31177e-15 -2.83818e-13 -8.69329e-13 -5.33956e-13)
(9.85654e-13 6.17945e-12 -4.4677e-15 -3.27865e-13 -1.27666e-12 -6.57788e-13)
(1.16107e-12 7.13262e-12 1.50593e-15 -3.59746e-13 -1.65525e-12 -8.01324e-13)
(1.33522e-12 8.04035e-12 1.63082e-14 -3.79697e-13 -1.96956e-12 -9.55526e-13)
(1.51156e-12 9.16995e-12 4.5056e-14 -4.00273e-13 -2.19607e-12 -1.11129e-12)
(1.72766e-12 1.12436e-11 1.01604e-13 -4.51817e-13 -2.35925e-12 -1.27584e-12)
(1.97993e-12 1.35675e-11 1.88763e-13 -4.93274e-13 -2.46623e-12 -1.48666e-12)
(2.17733e-12 1.50668e-11 2.96237e-13 -4.78644e-13 -2.45457e-12 -1.69868e-12)
(2.28231e-12 1.57748e-11 4.22212e-13 -4.21046e-13 -2.28465e-12 -1.86126e-12)
(2.25069e-12 1.54188e-11 5.48526e-13 -3.26899e-13 -1.95925e-12 -1.92379e-12)
(2.03637e-12 1.35466e-11 6.29547e-13 -2.0604e-13 -1.5071e-12 -1.83033e-12)
(1.62623e-12 9.96865e-12 5.96757e-13 -8.37511e-14 -9.92557e-13 -1.54248e-12)
(1.08095e-12 5.15265e-12 3.91823e-13 4.55921e-15 -5.14794e-13 -1.08551e-12)
(5.43451e-13 3.24942e-13 2.87797e-14 3.60577e-14 -1.75024e-13 -5.79509e-13)
(1.71314e-13 -2.98629e-12 -3.59998e-13 2.22241e-14 -1.66019e-14 -1.93538e-13)
(2.03071e-14 -3.69476e-12 -5.47375e-13 1.19143e-15 8.14175e-15 -2.14986e-14)
(4.74998e-15 -2.46614e-12 -4.49177e-13 -3.39398e-15 -2.21875e-15 -1.356e-15)
(9.53988e-15 -1.05779e-12 -2.39423e-13 -9.04312e-16 -2.79519e-15 -8.63557e-15)
(5.46848e-15 -3.03392e-13 -8.76538e-14 -1.25962e-18 -2.92185e-16 -5.46722e-15)
(1.44976e-15 -5.47296e-14 -2.12041e-14 -3.06395e-17 2.24373e-16 -1.41912e-15)
(1.74729e-16 -4.38134e-15 -2.48779e-15 -2.69934e-17 6.35875e-17 -1.47736e-16)
(4.16082e-18 7.3642e-21 9.21108e-21 -2.08044e-18 2.08041e-18 -2.08038e-18)
(6.47302e-22 6.90853e-20 2.21674e-19 -6.18605e-22 1.42055e-22 -2.86975e-23)
(2.0145e-11 2.1684e-10 -3.89069e-13 -9.10663e-13 2.5453e-11 -1.92344e-11)
(1.55484e-11 5.20544e-10 -2.38892e-12 -6.17818e-12 6.10134e-11 -9.37023e-12)
(1.24175e-11 5.77173e-10 -3.03642e-12 -1.03871e-11 6.95505e-11 -2.03042e-12)
(1.14729e-11 4.64274e-10 -1.98658e-12 -1.04996e-11 6.33887e-11 -9.73253e-13)
(1.04824e-11 3.07589e-10 -7.13964e-13 -7.99324e-12 5.57964e-11 -2.4892e-12)
(9.19051e-12 1.88214e-10 8.06936e-14 -5.35683e-12 5.16702e-11 -3.83367e-12)
(8.14873e-12 1.17936e-10 4.86822e-13 -3.58437e-12 5.03466e-11 -4.56436e-12)
(7.44139e-12 7.8267e-11 7.07915e-13 -2.51042e-12 5.04035e-11 -4.93097e-12)
(6.74914e-12 4.92939e-11 8.58266e-13 -1.64882e-12 5.11579e-11 -5.10032e-12)
(5.79361e-12 2.06988e-11 9.82152e-13 -6.91762e-13 5.27078e-11 -5.10185e-12)
(4.53166e-12 -8.93815e-12 1.09287e-12 3.95945e-13 5.52906e-11 -4.9276e-12)
(3.1185e-12 -3.67029e-11 1.19643e-12 1.48601e-12 5.89342e-11 -4.60451e-12)
(1.78449e-12 -5.89515e-11 1.29778e-12 2.40885e-12 6.33575e-11 -4.19334e-12)
(7.53568e-13 -7.29759e-11 1.39935e-12 3.02219e-12 6.80494e-11 -3.77576e-12)
(2.23562e-13 -7.66889e-11 1.49969e-12 3.20338e-12 7.23668e-11 -3.42694e-12)
(3.98843e-13 -6.79768e-11 1.59333e-12 2.82507e-12 7.55259e-11 -3.22392e-12)
(1.37978e-12 -4.70355e-11 1.67018e-12 1.86513e-12 7.67081e-11 -3.24491e-12)
(3.25174e-12 -1.41713e-11 1.72228e-12 3.17643e-13 7.52066e-11 -3.56938e-12)
(6.20757e-12 3.19444e-11 1.74739e-12 -1.88667e-12 7.03579e-11 -4.3209e-12)
(1.05469e-11 9.37346e-11 1.7497e-12 -4.85799e-12 6.15426e-11 -5.68895e-12)
(1.67278e-11 1.75045e-10 1.74449e-12 -8.76226e-12 4.81979e-11 -7.9655e-12)
(2.52587e-11 2.78253e-10 1.75812e-12 -1.36756e-11 2.9862e-11 -1.15831e-11)
(3.66037e-11 4.02707e-10 1.84235e-12 -1.94954e-11 6.41627e-12 -1.71084e-11)
(5.15004e-11 5.51873e-10 2.1314e-12 -2.62677e-11 -2.1914e-11 -2.52327e-11)
(7.05962e-11 7.23707e-10 2.83896e-12 -3.37062e-11 -5.45074e-11 -3.689e-11)
(9.39844e-11 9.074e-10 4.25456e-12 -4.1049e-11 -8.99783e-11 -5.29354e-11)
(1.21406e-10 1.09004e-09 6.74864e-12 -4.74219e-11 -1.26122e-10 -7.39839e-11)
(1.52057e-10 1.2598e-09 1.07273e-11 -5.20513e-11 -1.60104e-10 -1.00006e-10)
(1.85115e-10 1.42027e-09 1.67418e-11 -5.4948e-11 -1.89051e-10 -1.30167e-10)
(2.21038e-10 1.61811e-09 2.62095e-11 -5.79795e-11 -2.10977e-10 -1.63059e-10)
(2.64101e-10 1.96892e-09 4.32357e-11 -6.53587e-11 -2.28478e-10 -1.98742e-10)
(3.13285e-10 2.36286e-09 6.88419e-11 -7.18579e-11 -2.42123e-10 -2.41428e-10)
(3.55681e-10 2.62516e-09 1.00064e-10 -7.11757e-11 -2.45957e-10 -2.84506e-10)
(3.84798e-10 2.75652e-09 1.3639e-10 -6.47489e-11 -2.36598e-10 -3.20049e-10)
(3.92439e-10 2.71102e-09 1.73046e-10 -5.28693e-11 -2.12883e-10 -3.3957e-10)
(3.68813e-10 2.40747e-09 1.9712e-10 -3.57419e-11 -1.74297e-10 -3.33071e-10)
(3.08284e-10 1.80491e-09 1.8837e-10 -1.59173e-11 -1.2335e-10 -2.92366e-10)
(2.17332e-10 9.72139e-10 1.28197e-10 1.09404e-12 -6.83979e-11 -2.18426e-10)
(1.18735e-10 1.1235e-10 1.79098e-11 9.40317e-12 -2.31135e-11 -1.28139e-10)
(4.27274e-11 -5.0545e-10 -1.05576e-10 7.8584e-12 9.57449e-13 -5.05858e-11)
(6.00903e-12 -6.649e-10 -1.70935e-10 2.66676e-12 3.97025e-12 -8.67579e-12)
(-5.16733e-13 -4.54617e-10 -1.44078e-10 3.38693e-13 6.24889e-13 1.7804e-13)
(7.15612e-13 -1.93716e-10 -7.65258e-11 8.51812e-14 -1.38263e-13 -8.00793e-13)
(7.53576e-13 -5.1303e-11 -2.59517e-11 -9.77823e-15 1.27751e-13 -7.43798e-13)
(2.43337e-13 -6.40812e-12 -4.36067e-12 -4.78481e-14 9.69791e-14 -1.95489e-13)
(2.26061e-14 -7.01759e-18 2.48249e-17 -1.13031e-14 1.1303e-14 -1.1303e-14)
(1.7473e-16 2.48793e-15 4.3816e-15 -1.47738e-16 6.3587e-17 -2.69926e-17)
(2.66242e-20 3.49071e-19 1.95955e-18 -2.70449e-20 -1.27728e-21 4.2062e-22)
(5.76227e-09 5.26901e-09 1.01606e-11 -1.48517e-11 3.48158e-10 -5.74741e-09)
(5.28197e-09 1.27259e-08 -7.3688e-11 -1.04147e-10 8.62731e-10 -5.17782e-09)
(4.61261e-09 1.4134e-08 -1.08805e-10 -1.82891e-10 1.0371e-09 -4.42972e-09)
(4.10827e-09 1.13548e-08 -7.59774e-11 -1.92998e-10 9.96143e-10 -3.91527e-09)
(3.8394e-09 7.5749e-09 -3.16696e-11 -1.53922e-10 9.04416e-10 -3.68548e-09)
(3.7458e-09 4.70301e-09 -3.60403e-12 -1.08138e-10 8.42143e-10 -3.63766e-09)
(3.74098e-09 3.00539e-09 1.04071e-11 -7.58356e-11 8.13779e-10 -3.66514e-09)
(3.76177e-09 2.04694e-09 1.74662e-11 -5.58417e-11 8.03879e-10 -3.70593e-09)
(3.77733e-09 1.36793e-09 2.16429e-11 -3.99384e-11 8.01814e-10 -3.73739e-09)
(3.78036e-09 7.26501e-10 2.44179e-11 -2.25075e-11 8.06918e-10 -3.75785e-09)
(3.77399e-09 8.42972e-11 2.61649e-11 -2.95387e-12 8.21824e-10 -3.77104e-09)
(3.76165e-09 -4.96977e-10 2.70718e-11 1.61384e-11 8.47443e-10 -3.77779e-09)
(3.74394e-09 -9.3574e-10 2.7411e-11 3.12944e-11 8.80899e-10 -3.77523e-09)
(3.71752e-09 -1.16874e-09 2.74857e-11 3.95438e-11 9.16164e-10 -3.75706e-09)
(3.67739e-09 -1.14475e-09 2.75769e-11 3.83433e-11 9.45609e-10 -3.71573e-09)
(3.61636e-09 -8.13875e-10 2.79565e-11 2.52875e-11 9.60235e-10 -3.64165e-09)
(3.52474e-09 -1.78264e-10 2.88244e-11 1.4621e-13 9.50522e-10 -3.52489e-09)
(3.39519e-09 7.53556e-10 3.04602e-11 -3.675e-11 9.08857e-10 -3.35844e-09)
(3.22277e-09 2.00562e-09 3.33451e-11 -8.6028e-11 8.29016e-10 -3.13674e-09)
(3.00629e-09 3.62478e-09 3.81756e-11 -1.48945e-10 7.05833e-10 -2.85734e-09)
(2.74938e-09 5.69056e-09 4.60209e-11 -2.27775e-10 5.35145e-10 -2.5216e-09)
(2.45913e-09 8.25137e-09 5.83017e-11 -3.23257e-10 3.12726e-10 -2.13587e-09)
(2.14762e-09 1.12925e-08 7.71638e-11 -4.33247e-10 3.54912e-11 -1.71437e-09)
(1.83868e-09 1.49105e-08 1.07566e-10 -5.59212e-10 -2.95753e-10 -1.27947e-09)
(1.55579e-09 1.90729e-08 1.5702e-10 -6.96766e-10 -6.76752e-10 -8.59026e-10)
(1.32507e-09 2.35522e-08 2.35344e-10 -8.33543e-10 -1.09819e-09 -4.91529e-10)
(1.1761e-09 2.80868e-08 3.55172e-10 -9.55796e-10 -1.54358e-09 -2.20308e-10)
(1.13932e-09 3.24228e-08 5.30678e-10 -1.05057e-09 -1.98837e-09 -8.87468e-11)
(1.24667e-09 3.65815e-08 7.80766e-10 -1.11573e-09 -2.40139e-09 -1.30937e-10)
(1.54385e-09 4.14977e-08 1.15274e-09 -1.18119e-09 -2.74807e-09 -3.62657e-10)
(2.11052e-09 4.97717e-08 1.78852e-09 -1.32814e-09 -3.04976e-09 -7.82381e-10)
(2.88033e-09 5.9185e-08 2.73514e-09 -1.47682e-09 -3.33896e-09 -1.40351e-09)
(3.69909e-09 6.59599e-08 3.90699e-09 -1.51586e-09 -3.55958e-09 -2.18323e-09)
(4.50224e-09 7.00827e-08 5.30532e-09 -1.46208e-09 -3.6613e-09 -3.04016e-09)
(5.15007e-09 7.0325e-08 6.78412e-09 -1.29538e-09 -3.59492e-09 -3.85469e-09)
(5.41848e-09 6.43351e-08 7.884e-09 -9.72458e-10 -3.27584e-09 -4.44602e-09)
(5.08491e-09 5.03846e-08 7.81077e-09 -4.95109e-10 -2.6248e-09 -4.5898e-09)
(4.08158e-09 2.9268e-08 5.70375e-09 2.18309e-11 -1.66576e-09 -4.10341e-09)
(2.64042e-09 5.51997e-09 1.32662e-09 3.54346e-10 -6.25151e-10 -2.99476e-09)
(1.24543e-09 -1.35982e-08 -4.15414e-09 3.3223e-10 1.14768e-10 -1.57766e-09)
(3.15288e-10 -1.99701e-08 -7.50901e-09 1.08595e-10 2.44245e-10 -4.23883e-10)
(8.51874e-12 -1.37588e-08 -6.38321e-09 3.16031e-12 7.30048e-11 -1.1679e-11)
(-2.71464e-12 -5.22919e-09 -3.02807e-09 1.59627e-12 2.1262e-12 1.11837e-12)
(1.09393e-11 -9.04095e-10 -6.71314e-10 -1.3044e-12 4.11061e-12 -9.63486e-12)
(4.15872e-12 -3.2997e-15 5.52961e-15 -2.07937e-12 2.07936e-12 -2.07935e-12)
(2.43338e-13 4.36076e-12 6.40825e-12 -1.95491e-13 9.69786e-14 -4.78472e-14)
(1.44977e-15 2.12045e-14 5.47304e-14 -1.41913e-15 2.24369e-16 -3.06373e-17)
(2.90782e-19 1.30117e-18 1.06264e-17 -2.97114e-19 -7.46726e-20 6.33122e-21)
(4.98209e-08 3.19008e-08 2.06653e-10 -4.93978e-11 1.29886e-09 -4.97715e-08)
(4.3957e-08 7.69776e-08 -5.36288e-10 -3.67829e-10 3.29626e-09 -4.35891e-08)
(3.57408e-08 8.41849e-08 -8.73562e-10 -6.89621e-10 4.07908e-09 -3.50512e-08)
(2.88904e-08 6.54743e-08 -6.23523e-10 -7.56675e-10 4.02658e-09 -2.81337e-08)
(2.42214e-08 4.20358e-08 -2.80121e-10 -6.12555e-10 3.74696e-09 -2.36089e-08)
(2.1274e-08 2.50194e-08 -7.222e-11 -4.27062e-10 3.54594e-09 -2.08469e-08)
(1.93962e-08 1.54923e-08 2.2011e-11 -2.96884e-10 3.45102e-09 -1.90993e-08)
(1.81274e-08 1.05778e-08 6.27944e-11 -2.23566e-10 3.40741e-09 -1.79038e-08)
(1.72156e-08 7.45793e-09 8.37551e-11 -1.71881e-10 3.37345e-09 -1.70437e-08)
(1.65493e-08 4.65415e-09 9.64689e-11 -1.15472e-10 3.34362e-09 -1.64338e-08)
(1.60805e-08 1.89205e-09 1.03195e-10 -5.07761e-11 3.32728e-09 -1.60297e-08)
(1.57729e-08 -5.10914e-10 1.04776e-10 1.05559e-11 3.32951e-09 -1.57834e-08)
(1.55851e-08 -2.10114e-09 1.03105e-10 5.2213e-11 3.34263e-09 -1.56373e-08)
(1.54657e-08 -2.50786e-09 1.00869e-10 6.01158e-11 3.34825e-09 -1.55258e-08)
(1.53642e-08 -1.4027e-09 1.01154e-10 2.21844e-11 3.32424e-09 -1.53864e-08)
(1.52284e-08 1.55936e-09 1.07656e-10 -7.27634e-11 3.24676e-09 -1.51556e-08)
(1.50023e-08 6.4545e-09 1.24115e-10 -2.25747e-10 3.092e-09 -1.47765e-08)
(1.46482e-08 1.33418e-08 1.55192e-10 -4.35226e-10 2.84548e-09 -1.4213e-08)
(1.41413e-08 2.24695e-08 2.07402e-10 -7.03657e-10 2.49998e-09 -1.34376e-08)
(1.34705e-08 3.41906e-08 2.89148e-10 -1.03513e-09 2.05207e-09 -1.24354e-08)
(1.26401e-08 4.90136e-08 4.12238e-10 -1.43695e-09 1.50057e-09 -1.12031e-08)
(1.16593e-08 6.73036e-08 5.93036e-10 -1.91078e-09 8.37972e-10 -9.74853e-09)
(1.05429e-08 8.92142e-08 8.57723e-10 -2.45076e-09 4.85179e-11 -8.09218e-09)
(9.35799e-09 1.15212e-07 1.25664e-09 -3.0577e-09 -8.77243e-10 -6.30029e-09)
(8.21565e-09 1.45057e-07 1.86669e-09 -3.71054e-09 -1.93845e-09 -4.50511e-09)
(7.22995e-09 1.77774e-07 2.79616e-09 -4.36775e-09 -3.12898e-09 -2.86221e-09)
(6.5177e-09 2.12054e-07 4.18748e-09 -4.97934e-09 -4.43101e-09 -1.53836e-09)
(6.19123e-09 2.46433e-07 6.2089e-09 -5.4925e-09 -5.80211e-09 -6.98724e-10)
(6.34577e-09 2.80274e-07 9.06525e-09 -5.87668e-09 -7.16745e-09 -4.69086e-10)
(7.09674e-09 3.16717e-07 1.3138e-08 -6.19377e-09 -8.38697e-09 -9.02976e-10)
(8.70651e-09 3.68834e-07 1.954e-08 -6.7323e-09 -9.42156e-09 -1.97421e-09)
(1.15153e-08 4.30734e-07 2.904e-08 -7.36648e-09 -1.06657e-08 -4.14884e-09)
(1.49659e-08 4.83747e-07 4.13983e-08 -7.80563e-09 -1.20022e-08 -7.16026e-09)
(1.87014e-08 5.26351e-07 5.70179e-08 -8.08122e-09 -1.33097e-08 -1.06202e-08)
(2.21237e-08 5.48991e-07 7.50643e-08 -7.98814e-09 -1.44001e-08 -1.41356e-08)
(2.43094e-08 5.33819e-07 9.18475e-08 -7.05563e-09 -1.48308e-08 -1.72538e-08)
(2.43083e-08 4.63667e-07 1.0001e-07 -4.81115e-09 -1.39365e-08 -1.94971e-08)
(2.16752e-08 3.33384e-07 8.97031e-08 -1.34726e-09 -1.10606e-08 -2.03279e-08)
(1.6983e-08 1.60107e-07 5.34005e-08 2.0243e-09 -6.06314e-09 -1.90073e-08)
(1.15767e-08 -1.72086e-08 -7.23834e-09 2.88971e-09 -3.54947e-11 -1.44664e-08)
(5.67378e-09 -1.16077e-07 -5.90133e-08 8.70569e-10 2.64145e-09 -6.54435e-09)
(1.58019e-09 -9.06274e-08 -5.67023e-08 -3.30915e-10 1.2574e-09 -1.24927e-09)
(1.313e-10 -2.64129e-08 -2.06024e-08 -1.00632e-10 1.18503e-10 -3.06677e-11)
(5.63695e-12 3.55024e-14 3.83033e-14 -2.81855e-12 2.81848e-12 -2.8184e-12)
(1.09393e-11 6.71322e-10 9.04106e-10 -9.63497e-12 4.11056e-12 -1.30435e-12)
(7.5358e-13 2.59518e-11 5.13033e-11 -7.43803e-13 1.27749e-13 -9.7775e-15)
(5.46851e-15 8.76542e-14 3.03394e-13 -5.46725e-15 -2.92205e-16 -1.26048e-18)
(1.33403e-18 3.8016e-18 4.13948e-17 -1.32694e-18 -6.26555e-19 -7.08736e-21)
(1.69133e-08 8.93677e-08 -4.50055e-10 -7.50393e-11 1.20782e-09 -1.68382e-08)
(1.12145e-08 2.16955e-07 -3.03704e-09 -6.02106e-10 3.1081e-09 -1.06124e-08)
(5.35764e-09 2.40567e-07 -4.13442e-09 -1.23633e-09 4.11024e-09 -4.12131e-09)
(2.26692e-09 1.91977e-07 -3.09456e-09 -1.48139e-09 4.66928e-09 -7.85529e-10)
(1.47983e-09 1.29059e-07 -1.70865e-09 -1.31938e-09 5.14351e-09 -1.60449e-10)
(1.84088e-09 8.20131e-08 -8.30147e-10 -1.02187e-09 5.54492e-09 -8.19012e-10)
(2.66891e-09 5.44164e-08 -3.97023e-10 -7.85553e-10 5.80286e-09 -1.88335e-09)
(3.63033e-09 3.92675e-08 -1.88271e-10 -6.38532e-10 5.91022e-09 -2.9918e-09)
(4.53088e-09 2.94541e-08 -7.29805e-11 -5.28433e-10 5.90793e-09 -4.00245e-09)
(5.25485e-09 2.11205e-08 -1.67648e-12 -4.10385e-10 5.84965e-09 -4.84447e-09)
(5.76919e-09 1.34877e-08 3.87192e-11 -2.81314e-10 5.764e-09 -5.48788e-09)
(6.1148e-09 7.34622e-09 5.47779e-11 -1.67875e-10 5.64632e-09 -5.94692e-09)
(6.37674e-09 3.89588e-09 5.66358e-11 -1.05285e-10 5.46575e-09 -6.27145e-09)
(6.65496e-09 4.12696e-09 5.76695e-11 -1.2146e-10 5.18103e-09 -6.5335e-09)
(7.04205e-09 8.90699e-09 7.29792e-11 -2.36298e-10 4.75352e-09 -6.80576e-09)
(7.6243e-09 1.90996e-08 1.20055e-10 -4.62499e-10 4.14959e-09 -7.1618e-09)
(8.45555e-09 3.47363e-08 2.16093e-10 -7.86664e-10 3.35576e-09 -7.66889e-09)
(9.56111e-09 5.57239e-08 3.79888e-10 -1.1872e-09 2.37976e-09 -8.37391e-09)
(1.09749e-08 8.24905e-08 6.35808e-10 -1.64993e-09 1.23302e-09 -9.32498e-09)
(1.27434e-08 1.15843e-07 1.01577e-09 -2.16514e-09 -7.57022e-11 -1.05782e-08)
(1.49485e-08 1.57396e-07 1.57024e-09 -2.7341e-09 -1.54931e-09 -1.22144e-08)
(1.77255e-08 2.09329e-07 2.38395e-09 -3.36019e-09 -3.20826e-09 -1.43654e-08)
(2.12784e-08 2.73167e-07 3.59024e-09 -4.02474e-09 -5.07809e-09 -1.72536e-08)
(2.58493e-08 3.49384e-07 5.39905e-09 -4.68377e-09 -7.16704e-09 -2.11656e-08)
(3.16226e-08 4.37429e-07 8.13827e-09 -5.27075e-09 -9.43864e-09 -2.63518e-08)
(3.87952e-08 5.36466e-07 1.23041e-08 -5.70813e-09 -1.18232e-08 -3.3087e-08)
(4.75687e-08 6.44487e-07 1.85658e-08 -5.89861e-09 -1.41985e-08 -4.167e-08)
(5.80748e-08 7.59286e-07 2.77834e-08 -5.74562e-09 -1.63799e-08 -5.23292e-08)
(7.04755e-08 8.80698e-07 4.10973e-08 -5.17866e-09 -1.81586e-08 -6.52968e-08)
(8.48234e-08 1.02098e-06 6.06881e-08 -4.22015e-09 -1.94743e-08 -8.06032e-08)
(1.00702e-07 1.26277e-06 9.53797e-08 -3.28035e-09 -2.17371e-08 -9.74221e-08)
(1.15528e-07 1.53648e-06 1.46856e-07 -1.96855e-09 -2.39008e-08 -1.1356e-07)
(1.29811e-07 1.74682e-06 2.10211e-07 -2.61766e-10 -2.44693e-08 -1.29549e-07)
(1.44458e-07 1.9421e-06 2.93009e-07 1.11004e-09 -2.46826e-08 -1.45568e-07)
(1.59344e-07 2.11259e-06 3.9799e-07 1.84936e-09 -2.45661e-08 -1.61193e-07)
(1.733e-07 2.21744e-06 5.19503e-07 1.83703e-09 -2.33284e-08 -1.75137e-07)
(1.83095e-07 2.20092e-06 6.38449e-07 1.18395e-09 -1.9651e-08 -1.84279e-07)
(1.82516e-07 1.99887e-06 7.14553e-07 3.07344e-10 -1.20011e-08 -1.82824e-07)
(1.64197e-07 1.55088e-06 6.79958e-07 -3.02314e-10 7.29216e-10 -1.63895e-07)
(1.27231e-07 8.1362e-07 4.35584e-07 -2.74536e-09 1.98036e-08 -1.24486e-07)
(6.93147e-08 9.97132e-08 6.46214e-08 -8.62241e-09 2.51826e-08 -6.06923e-08)
(2.45107e-08 -7.99546e-08 -6.44408e-08 -7.69732e-09 1.19923e-08 -1.68134e-08)
(3.94922e-09 9.02644e-12 -8.29953e-12 -1.97461e-09 1.97461e-09 -1.97462e-09)
(1.313e-10 2.06026e-08 2.64131e-08 -3.06666e-11 1.18503e-10 -1.00634e-10)
(-2.71442e-12 3.02808e-09 5.22921e-09 1.11826e-12 2.12609e-12 1.59616e-12)
(7.15622e-13 7.65259e-11 1.93716e-10 -8.008e-13 -1.38269e-13 8.51778e-14)
(9.53996e-15 2.39424e-13 1.0578e-12 -8.63562e-15 -2.79524e-15 -9.04335e-16)
(2.91643e-18 8.7871e-18 1.21586e-16 -2.62159e-18 -2.09495e-18 -2.94831e-19)
(1.48622e-09 1.56108e-07 -1.11938e-09 -8.73491e-11 -3.48374e-10 -1.39887e-09)
(9.93869e-10 3.78338e-07 -6.88441e-09 -6.74779e-10 -6.36176e-10 -3.1909e-10)
(1.40748e-09 4.22787e-07 -9.47577e-09 -1.35377e-09 1.06664e-10 -5.37102e-11)
(2.70599e-09 3.44991e-07 -7.3387e-09 -1.65488e-09 1.64723e-09 -1.05111e-09)
(4.20003e-09 2.40246e-07 -4.27169e-09 -1.55883e-09 3.32555e-09 -2.6412e-09)
(5.53295e-09 1.601e-07 -2.24019e-09 -1.30523e-09 4.633e-09 -4.22773e-09)
(6.74312e-09 1.11577e-07 -1.18794e-09 -1.08547e-09 5.4292e-09 -5.65765e-09)
(7.90221e-09 8.37354e-08 -6.51912e-10 -9.37314e-10 5.79798e-09 -6.96489e-09)
(9.00871e-09 6.51624e-08 -3.4316e-10 -8.13658e-10 5.87768e-09 -8.19505e-09)
(1.00353e-08 4.96163e-08 -1.47667e-10 -6.7228e-10 5.78253e-09 -9.36298e-09)
(1.09969e-08 3.59102e-08 -3.18774e-11 -5.17757e-10 5.56822e-09 -1.04791e-08)
(1.19687e-08 2.54613e-08 2.36842e-11 -3.87223e-10 5.23851e-09 -1.15815e-08)
(1.30622e-08 2.03499e-08 4.70019e-11 -3.22871e-10 4.76625e-09 -1.27394e-08)
(1.43999e-08 2.22042e-08 7.33629e-11 -3.50128e-10 4.11987e-09 -1.40498e-08)
(1.60882e-08 3.23576e-08 1.41295e-10 -4.75905e-10 3.27979e-09 -1.56123e-08)
(1.82281e-08 5.20797e-08 2.9383e-10 -6.89683e-10 2.24002e-09 -1.75384e-08)
(2.0892e-08 8.11337e-08 5.71378e-10 -9.46471e-10 1.03025e-09 -1.99456e-08)
(2.41272e-08 1.19172e-07 1.01729e-09 -1.19266e-09 -2.98796e-10 -2.29345e-08)
(2.80289e-08 1.67054e-07 1.69173e-09 -1.3829e-09 -1.70989e-09 -2.6646e-08)
(3.27682e-08 2.2668e-07 2.68294e-09 -1.47211e-09 -3.18712e-09 -3.12961e-08)
(3.86455e-08 3.01761e-07 4.14146e-09 -1.41006e-09 -4.74932e-09 -3.72355e-08)
(4.61268e-08 3.9739e-07 6.32587e-09 -1.12022e-09 -6.44176e-09 -4.50065e-08)
(5.58643e-08 5.18299e-07 9.65613e-09 -4.78441e-10 -8.2959e-09 -5.53858e-08)
(6.87894e-08 6.67619e-07 1.47891e-08 6.86341e-10 -1.02962e-08 -6.94758e-08)
(8.62355e-08 8.47178e-07 2.27472e-08 2.59309e-09 -1.23596e-08 -8.88286e-08)
(1.09843e-07 1.05999e-06 3.51409e-08 5.51176e-09 -1.4332e-08 -1.15355e-07)
(1.41838e-07 1.30897e-06 5.43331e-08 9.76155e-09 -1.59304e-08 -1.516e-07)
(1.84982e-07 1.59959e-06 8.37919e-08 1.57001e-08 -1.67367e-08 -2.00682e-07)
(2.43034e-07 1.94243e-06 1.28683e-07 2.37167e-08 -1.62437e-08 -2.66751e-07)
(3.20093e-07 2.35294e-06 1.96716e-07 3.41581e-08 -1.38371e-08 -3.54251e-07)
(4.1611e-07 2.86107e-06 3.00701e-07 4.77312e-08 -1.01565e-08 -4.63841e-07)
(4.86405e-07 3.39993e-06 4.48159e-07 6.25838e-08 -2.46369e-09 -5.48989e-07)
(5.60538e-07 4.01101e-06 6.59963e-07 7.90131e-08 6.89774e-09 -6.39552e-07)
(6.47669e-07 4.70129e-06 9.60232e-07 9.55123e-08 1.76119e-08 -7.43182e-07)
(7.45632e-07 5.41369e-06 1.36506e-06 1.08741e-07 3.0534e-08 -8.54373e-07)
(8.44165e-07 6.01003e-06 1.86074e-06 1.1302e-07 4.9309e-08 -9.57185e-07)
(9.2041e-07 6.26138e-06 2.36766e-06 1.01065e-07 8.03525e-08 -1.02147e-06)
(9.39758e-07 5.89282e-06 2.70793e-06 6.61505e-08 1.28447e-07 -1.00591e-06)
(8.71522e-07 4.73219e-06 2.63153e-06 6.09143e-09 1.85822e-07 -8.77614e-07)
(7.32291e-07 2.73078e-06 1.83116e-06 -7.89842e-08 2.46652e-07 -6.53307e-07)
(4.40983e-07 8.10746e-07 6.55185e-07 -1.26164e-07 1.9982e-07 -3.14819e-07)
(1.42956e-07 1.02643e-09 -1.02513e-09 -7.1478e-08 7.1478e-08 -7.1478e-08)
(2.45107e-08 6.44418e-08 7.99559e-08 -1.68134e-08 1.19923e-08 -7.69733e-09)
(1.58018e-09 5.67025e-08 9.06277e-08 -1.24926e-09 1.2574e-09 -3.30918e-10)
(8.51886e-12 6.38321e-09 1.37589e-08 -1.16788e-11 7.30047e-11 3.15998e-12)
(-5.16721e-13 1.44078e-10 4.54618e-10 1.7804e-13 6.24884e-13 3.38681e-13)
(4.75008e-15 4.49177e-13 2.46615e-12 -1.35603e-15 -2.21879e-15 -3.39405e-15)
(2.58125e-18 1.51163e-17 2.58838e-16 -1.27706e-18 -2.13584e-18 -1.30419e-18)
(8.25245e-08 2.3404e-07 -1.57696e-09 -4.71124e-11 2.72765e-09 -8.24774e-08)
(7.31986e-08 5.71325e-07 -1.24806e-08 -3.5445e-10 6.58805e-09 -7.28442e-08)
(6.02872e-08 6.50127e-07 -1.79521e-08 -7.2725e-10 7.63419e-09 -5.956e-08)
(4.82956e-08 5.47238e-07 -1.45479e-08 -9.85864e-10 7.08388e-09 -4.73097e-08)
(3.90653e-08 3.9691e-07 -8.90038e-09 -1.07704e-09 6.37931e-09 -3.79883e-08)
(3.22921e-08 2.7705e-07 -4.90991e-09 -1.04498e-09 6.01805e-09 -3.12472e-08)
(2.71551e-08 2.01115e-07 -2.71449e-09 -9.75385e-10 5.87403e-09 -2.61797e-08)
(2.3045e-08 1.55031e-07 -1.52923e-09 -9.03816e-10 5.70558e-09 -2.21412e-08)
(1.95968e-08 1.23055e-07 -8.19554e-10 -8.13113e-10 5.37436e-09 -1.87836e-08)
(1.66209e-08 9.64411e-08 -3.61257e-10 -6.85689e-10 4.8609e-09 -1.59352e-08)
(1.40177e-08 7.35942e-08 -7.937e-11 -5.38334e-10 4.21358e-09 -1.34794e-08)
(1.17083e-08 5.6595e-08 7.4444e-11 -4.0839e-10 3.49259e-09 -1.12999e-08)
(9.61653e-09 4.83459e-08 1.63518e-10 -3.2611e-10 2.74783e-09 -9.29042e-09)
(7.66638e-09 5.08763e-08 2.62371e-10 -2.9394e-10 2.02116e-09 -7.37244e-09)
(5.81341e-09 6.5655e-08 4.47995e-10 -2.85427e-10 1.36454e-09 -5.52799e-09)
(4.03277e-09 9.41109e-08 8.03128e-10 -2.47726e-10 8.44042e-10 -3.78505e-09)
(2.3187e-09 1.35668e-07 1.40396e-09 -1.00353e-10 5.27967e-10 -2.21834e-09)
(7.08036e-10 1.90111e-07 2.33778e-09 2.44854e-10 4.95152e-10 -9.5289e-10)
(-7.45949e-10 2.59665e-07 3.74209e-09 8.87845e-10 8.30388e-10 -1.41896e-10)
(-1.95403e-09 3.48509e-07 5.83724e-09 1.96347e-09 1.62349e-09 -9.43067e-12)
(-2.74098e-09 4.63496e-07 9.00057e-09 3.67228e-09 2.97822e-09 -9.31299e-10)
(-2.74671e-09 6.13068e-07 1.38612e-08 6.30729e-09 5.02248e-09 -3.56058e-09)
(-1.26692e-09 8.05187e-07 2.14262e-08 1.02567e-08 7.91702e-09 -8.98978e-09)
(2.93431e-09 1.0475e-06 3.33083e-08 1.5994e-08 1.18728e-08 -1.89283e-08)
(1.20066e-08 1.34575e-06 5.1984e-08 2.405e-08 1.71687e-08 -3.60566e-08)
(2.91205e-08 1.70717e-06 8.12817e-08 3.50144e-08 2.42011e-08 -6.41349e-08)
(5.8929e-08 2.14066e-06 1.26914e-07 4.94861e-08 3.34615e-08 -1.08415e-07)
(1.07511e-07 2.66008e-06 1.97393e-07 6.80116e-08 4.54971e-08 -1.75523e-07)
(1.82749e-07 3.28392e-06 3.05182e-07 9.09166e-08 6.06328e-08 -2.73666e-07)
(2.92899e-07 4.02484e-06 4.67122e-07 1.17627e-07 7.89073e-08 -4.10526e-07)
(4.4677e-07 4.80924e-06 6.93306e-07 1.44372e-07 1.01503e-07 -5.91142e-07)
(6.36171e-07 5.73018e-06 1.02149e-06 1.72856e-07 1.25617e-07 -8.09027e-07)
(8.53964e-07 6.89537e-06 1.51369e-06 2.05343e-07 1.45129e-07 -1.05931e-06)
(1.08704e-06 8.1331e-06 2.1867e-06 2.32104e-07 1.62142e-07 -1.31914e-06)
(1.30024e-06 9.19988e-06 3.01249e-06 2.4111e-07 1.80746e-07 -1.54135e-06)
(1.44353e-06 9.753e-06 3.86853e-06 2.20373e-07 2.10233e-07 -1.6639e-06)
(1.47534e-06 9.42526e-06 4.50638e-06 1.62358e-07 2.61878e-07 -1.6377e-06)
(1.39424e-06 8.02075e-06 4.60376e-06 6.47516e-08 3.37349e-07 -1.45899e-06)
(1.24869e-06 5.73278e-06 3.93881e-06 -7.31674e-08 4.15571e-07 -1.17552e-06)
(1.18767e-06 2.58625e-06 2.11213e-06 -3.00138e-07 5.33381e-07 -8.87528e-07)
(1.1159e-06 1.73947e-08 -1.73978e-08 -5.57951e-07 5.57951e-07 -5.57951e-07)
(4.40983e-07 -6.55184e-07 -8.10745e-07 -3.14819e-07 1.9982e-07 -1.26164e-07)
(6.93145e-08 -6.46203e-08 -9.97115e-08 -6.06921e-08 2.51826e-08 -8.62239e-09)
(5.67376e-09 5.90134e-08 1.16078e-07 -6.54433e-09 2.64145e-09 8.70568e-10)
(3.15287e-10 7.50901e-09 1.99701e-08 -4.23882e-10 2.44245e-10 1.08594e-10)
(6.00902e-12 1.70935e-10 6.649e-10 -8.67576e-12 3.97025e-12 2.66674e-12)
(2.03072e-14 5.47375e-13 3.69475e-12 -2.14985e-14 8.1418e-15 1.1913e-15)