/*--------------------------------*- C++ -*----------------------------------*\
| =========                 |                                                 |
| \\      /  F ield         | OpenFOAM: The Open Source CFD Toolbox           |
|  \\    /   O peration     | Version:  2506                                  |
|   \\  /    A nd           | Website:  www.openfoam.com                      |
|    \\/     M anipulation  |                                                 |
\*---------------------------------------------------------------------------*/
FoamFile
{
    version     2.0;
    format      ascii;
    arch        "LSB;label=32;scalar=64";
    class       volSymmTensorField;
    location    "2137";
    object      Tij9;
}
// * * * * * * * * * * * * * * * * * * * * * * * * * * * * * * * * * * * * * //

dimensions      [0 0 0 0 0 0 0];

internalField   nonuniform List<symmTensor> 
2304
(
(-4.37481e-11 4.96159e-13 -1.34262e-13 8.74982e-11 -5.28347e-14 -4.37501e-11)
(-4.6094e-11 1.42819e-12 -1.09825e-13 9.22027e-11 -1.38872e-13 -4.61087e-11)
(-4.96807e-11 2.20934e-12 -7.51761e-14 9.9394e-11 -1.79564e-13 -4.97133e-11)
(-5.33801e-11 2.81734e-12 -4.39773e-14 1.06809e-10 -1.7774e-13 -5.34294e-11)
(-5.65498e-11 3.27733e-12 -2.34171e-14 1.13163e-10 -1.53309e-13 -5.6613e-11)
(-5.90398e-11 3.63788e-12 -1.20679e-14 1.18154e-10 -1.24088e-13 -5.91144e-11)
(-6.09295e-11 3.93511e-12 -6.19574e-15 1.21944e-10 -9.75959e-14 -6.10141e-11)
(-6.23321e-11 4.18905e-12 -2.94986e-15 1.24758e-10 -7.44298e-14 -6.24259e-11)
(-6.33279e-11 4.40856e-12 -1.24375e-15 1.26758e-10 -5.32128e-14 -6.34301e-11)
(-6.39691e-11 4.59928e-12 -9.03024e-16 1.28048e-10 -3.31106e-14 -6.40792e-11)
(-6.42989e-11 4.76667e-12 -2.02772e-15 1.28715e-10 -1.41826e-14 -6.44165e-11)
(-6.4363e-11 4.91649e-12 -4.50475e-15 1.28851e-10 3.15623e-15 -6.4488e-11)
(-6.42079e-11 5.05371e-12 -8.05531e-15 1.28548e-10 1.86655e-14 -6.43403e-11)
(-6.38766e-11 5.18169e-12 -1.22206e-14 1.27893e-10 3.24688e-14 -6.40165e-11)
(-6.34035e-11 5.30174e-12 -1.65459e-14 1.26955e-10 4.49632e-14 -6.35511e-11)
(-6.28143e-11 5.41325e-12 -2.05073e-14 1.25784e-10 5.66443e-14 -6.29695e-11)
(-6.21259e-11 5.51359e-12 -2.35693e-14 1.24415e-10 6.79757e-14 -6.22887e-11)
(-6.13498e-11 5.59893e-12 -2.53572e-14 1.2287e-10 7.91318e-14 -6.15198e-11)
(-6.04967e-11 5.66512e-12 -2.54821e-14 1.2117e-10 8.99587e-14 -6.06731e-11)
(-5.9579e-11 5.70795e-12 -2.35946e-14 1.1934e-10 1.0024e-13 -5.97609e-11)
(-5.86098e-11 5.72334e-12 -1.93183e-14 1.17405e-10 1.10046e-13 -5.87956e-11)
(-5.75979e-11 5.70691e-12 -1.22694e-14 1.15384e-10 1.20114e-13 -5.77859e-11)
(-5.65417e-11 5.65364e-12 -2.21496e-15 1.13271e-10 1.32056e-13 -5.67297e-11)
(-5.54241e-11 5.55799e-12 1.08308e-14 1.11033e-10 1.48337e-13 -5.56093e-11)
(-5.42082e-11 5.41345e-12 2.70941e-14 1.08596e-10 1.71922e-13 -5.43879e-11)
(-5.28404e-11 5.21316e-12 4.61833e-14 1.05852e-10 2.05785e-13 -5.30112e-11)
(-5.1255e-11 4.95173e-12 6.73129e-14 1.02669e-10 2.52411e-13 -5.14137e-11)
(-4.9382e-11 4.62684e-12 8.90741e-14 9.89077e-11 3.13114e-13 -4.95257e-11)
(-4.71593e-11 4.24102e-12 1.0986e-13 9.44445e-11 3.87383e-13 -4.72852e-11)
(-4.45439e-11 3.80204e-12 1.28496e-13 8.91943e-11 4.72789e-13 -4.46504e-11)
(-4.15206e-11 3.32214e-12 1.45465e-13 8.31273e-11 5.66181e-13 -4.16067e-11)
(-3.8096e-11 2.80967e-12 1.64977e-13 7.62574e-11 6.66098e-13 -3.81614e-11)
(-3.42787e-11 2.27628e-12 1.80797e-13 6.86024e-11 7.69129e-13 -3.43236e-11)
(-3.01136e-11 1.74541e-12 1.88902e-13 6.0253e-11 8.66562e-13 -3.01394e-11)
(-2.56928e-11 1.24515e-12 1.86511e-13 5.13945e-11 9.46541e-13 -2.57017e-11)
(-2.11579e-11 8.04955e-13 1.71486e-13 4.23109e-11 9.94955e-13 -2.1153e-11)
(-1.66977e-11 4.50969e-13 1.43362e-13 3.338e-11 9.97461e-13 -1.66823e-11)
(-1.25314e-11 1.9949e-13 1.04999e-13 2.50404e-11 9.44097e-13 -1.2509e-11)
(-8.87317e-12 5.03886e-14 6.32795e-14 1.77204e-11 8.35185e-13 -8.84719e-12)
(-5.88307e-12 -1.48631e-14 2.72705e-14 1.17396e-11 6.84718e-13 -5.85652e-12)
(-3.62531e-12 -2.69984e-14 4.02362e-15 7.22602e-12 5.17386e-13 -3.60071e-12)
(-2.05763e-12 -1.77276e-14 -4.60508e-15 4.09432e-12 3.59423e-13 -2.03669e-12)
(-1.05896e-12 -7.38759e-15 -4.37378e-15 2.10142e-12 2.28574e-13 -1.04246e-12)
(-4.79685e-13 -2.02765e-15 -2.05389e-15 9.47328e-13 1.31117e-13 -4.67643e-13)
(-1.80674e-13 -3.18774e-16 -5.88722e-16 3.53339e-13 6.5399e-14 -1.72665e-13)
(-5.04211e-14 -1.29667e-17 -9.19754e-17 9.61896e-14 2.61177e-14 -4.57685e-14)
(-7.97837e-15 2.08881e-18 -5.17852e-18 1.38378e-14 6.79908e-15 -5.85942e-15)
(-4.04335e-16 5.83362e-20 -5.83322e-20 2.02167e-16 6.06503e-16 2.02168e-16)
(-5.11877e-08 4.70805e-10 -9.74455e-11 1.02377e-07 -1.91648e-10 -5.1189e-08)
(-5.39281e-08 1.3676e-09 -1.94955e-11 1.07866e-07 -5.03651e-10 -5.39381e-08)
(-5.81142e-08 2.14893e-09 9.25615e-11 1.16253e-07 -6.51336e-10 -5.81383e-08)
(-6.24261e-08 2.79119e-09 1.97867e-10 1.24892e-07 -6.45392e-10 -6.24656e-08)
(-6.61164e-08 3.30437e-09 2.74123e-10 1.32287e-07 -5.58013e-10 -6.61703e-08)
(-6.90136e-08 3.72131e-09 3.22765e-10 1.38093e-07 -4.53426e-10 -6.90799e-08)
(-7.12121e-08 4.06984e-09 3.53373e-10 1.42502e-07 -3.58642e-10 -7.12896e-08)
(-7.28448e-08 4.36742e-09 3.73602e-10 1.45777e-07 -2.75756e-10 -7.29323e-08)
(-7.40049e-08 4.62287e-09 3.8685e-10 1.48107e-07 -1.99822e-10 -7.41016e-08)
(-7.47531e-08 4.84212e-09 3.93983e-10 1.49611e-07 -1.27863e-10 -7.48581e-08)
(-7.51395e-08 5.03071e-09 3.95181e-10 1.50392e-07 -6.01172e-11 -7.52523e-08)
(-7.52172e-08 5.19428e-09 3.91084e-10 1.50555e-07 1.91391e-12 -7.53374e-08)
(-7.50405e-08 5.3378e-09 3.82798e-10 1.50208e-07 5.73699e-11 -7.51675e-08)
(-7.46591e-08 5.46477e-09 3.71795e-10 1.49452e-07 1.06714e-10 -7.47929e-08)
(-7.41132e-08 5.57689e-09 3.59519e-10 1.48367e-07 1.514e-10 -7.42534e-08)
(-7.34323e-08 5.67406e-09 3.47475e-10 1.47011e-07 1.93245e-10 -7.35786e-08)
(-7.2636e-08 5.75447e-09 3.37068e-10 1.45424e-07 2.3396e-10 -7.2788e-08)
(-7.17369e-08 5.81528e-09 3.29282e-10 1.43631e-07 2.74203e-10 -7.1894e-08)
(-7.07471e-08 5.85344e-09 3.25057e-10 1.41655e-07 3.13434e-10 -7.09083e-08)
(-6.96805e-08 5.86602e-09 3.25292e-10 1.39525e-07 3.50871e-10 -6.98448e-08)
(-6.85522e-08 5.85027e-09 3.3098e-10 1.3727e-07 3.86751e-10 -6.87182e-08)
(-6.73729e-08 5.80329e-09 3.43168e-10 1.34912e-07 4.237e-10 -6.7539e-08)
(-6.61418e-08 5.72144e-09 3.62548e-10 1.32448e-07 4.67482e-10 -6.6306e-08)
(-6.48315e-08 5.59955e-09 3.89183e-10 1.29823e-07 5.26932e-10 -6.49918e-08)
(-6.34036e-08 5.4325e-09 4.23235e-10 1.26961e-07 6.12776e-10 -6.35575e-08)
(-6.18001e-08 5.215e-09 4.63389e-10 1.23745e-07 7.35707e-10 -6.19448e-08)
(-5.99457e-08 4.94263e-09 5.07114e-10 1.20024e-07 9.04687e-10 -6.00783e-08)
(-5.77602e-08 4.61344e-09 5.50409e-10 1.15638e-07 1.1245e-09 -5.78773e-08)
(-5.51711e-08 4.22945e-09 5.88743e-10 1.10441e-07 1.39341e-09 -5.52694e-08)
(-5.21278e-08 3.79745e-09 6.18604e-10 1.04332e-07 1.70271e-09 -5.22039e-08)
(-4.86121e-08 3.32914e-09 6.41094e-10 9.72744e-08 2.041e-09 -4.86623e-08)
(-4.46335e-08 2.83462e-09 6.63208e-10 8.92872e-08 2.40347e-09 -4.46537e-08)
(-4.02013e-08 2.32611e-09 6.72393e-10 8.03873e-08 2.77788e-09 -4.0186e-08)
(-3.53672e-08 1.82364e-09 6.59438e-10 7.06772e-08 3.13323e-09 -3.53101e-08)
(-3.02359e-08 1.35001e-09 6.18873e-10 6.03666e-08 3.42746e-09 -3.01306e-08)
(-2.49671e-08 9.28423e-10 5.474e-10 4.97755e-08 3.61014e-09 -2.48083e-08)
(-1.97728e-08 5.7957e-10 4.46222e-10 3.93319e-08 3.62893e-09 -1.95591e-08)
(-1.49014e-08 3.17299e-10 3.24486e-10 2.95404e-08 3.4457e-09 -1.46389e-08)
(-1.06005e-08 1.44017e-10 2.00203e-10 2.09062e-08 3.05816e-09 -1.03056e-08)
(-7.06256e-09 4.85095e-11 9.53854e-11 1.38231e-08 2.51398e-09 -6.76051e-09)
(-4.37487e-09 9.08615e-12 2.63852e-11 8.46796e-09 1.90257e-09 -4.09309e-09)
(-2.50009e-09 -5.63268e-13 -3.24994e-12 4.75937e-09 1.32222e-09 -2.25928e-09)
(-1.30396e-09 -6.14939e-13 -7.75661e-12 2.41727e-09 8.42309e-10 -1.11332e-09)
(-6.08011e-10 1.74873e-13 -4.34598e-12 1.07549e-09 4.86424e-10 -4.67477e-10)
(-2.43076e-10 2.72076e-13 -1.42102e-12 3.90968e-10 2.4567e-10 -1.47891e-10)
(-7.28829e-11 1.10087e-13 -2.537e-13 9.24538e-11 9.38856e-11 -1.95709e-11)
(-7.03947e-12 9.37398e-15 -9.37382e-15 3.51973e-12 1.05592e-11 3.51974e-12)
(-7.97836e-15 5.1787e-18 -2.08869e-18 -5.85941e-15 6.79906e-15 1.38378e-14)
(-3.63296e-06 2.51628e-08 -2.04718e-08 7.26597e-06 -2.33722e-08 -3.63301e-06)
(-3.80451e-06 7.37953e-08 -1.45008e-08 7.60919e-06 -6.10691e-08 -3.80468e-06)
(-4.06498e-06 1.18007e-07 -6.02107e-09 8.13061e-06 -7.83298e-08 -4.06563e-06)
(-4.332e-06 1.56576e-07 1.4734e-09 8.66544e-06 -7.70048e-08 -4.33343e-06)
(-4.5603e-06 1.89199e-07 6.3929e-09 9.12289e-06 -6.61396e-08 -4.5626e-06)
(-4.73972e-06 2.16676e-07 9.0902e-09 9.48254e-06 -5.3426e-08 -4.74282e-06)
(-4.87604e-06 2.39968e-07 1.05022e-08 9.75589e-06 -4.19974e-08 -4.87986e-06)
(-4.97728e-06 2.59846e-07 1.13166e-08 9.95902e-06 -3.2049e-08 -4.98174e-06)
(-5.04924e-06 2.76805e-07 1.18296e-08 1.01035e-05 -2.29748e-08 -5.05427e-06)
(-5.09579e-06 2.91213e-07 1.21031e-08 1.01971e-05 -1.44111e-08 -5.10133e-06)
(-5.12019e-06 3.03394e-07 1.21313e-08 1.02464e-05 -6.3743e-09 -5.12618e-06)
(-5.12573e-06 3.13658e-07 1.19405e-08 1.02579e-05 9.72251e-10 -5.13214e-06)
(-5.11575e-06 3.22274e-07 1.15985e-08 1.02383e-05 7.5392e-09 -5.12251e-06)
(-5.09321e-06 3.29443e-07 1.12097e-08 1.01935e-05 1.33913e-08 -5.1003e-06)
(-5.06046e-06 3.35274e-07 1.08865e-08 1.01283e-05 1.87079e-08 -5.06784e-06)
(-5.01918e-06 3.39795e-07 1.07561e-08 1.0046e-05 2.37111e-08 -5.02681e-06)
(-4.97041e-06 3.42959e-07 1.09427e-08 9.94866e-06 2.86097e-08 -4.97825e-06)
(-4.91476e-06 3.44677e-07 1.15337e-08 9.8375e-06 3.34858e-08 -4.92274e-06)
(-4.85279e-06 3.44861e-07 1.26068e-08 9.71364e-06 3.82758e-08 -4.86086e-06)
(-4.78518e-06 3.43439e-07 1.4228e-08 9.57845e-06 4.28824e-08 -4.79327e-06)
(-4.71271e-06 3.40356e-07 1.64659e-08 9.43346e-06 4.7324e-08 -4.72075e-06)
(-4.63592e-06 3.35556e-07 1.93944e-08 9.27976e-06 5.18979e-08 -4.64384e-06)
(-4.55474e-06 3.28944e-07 2.30596e-08 9.11719e-06 5.72772e-08 -4.56245e-06)
(-4.47001e-06 3.20498e-07 2.74752e-08 8.94742e-06 6.45501e-08 -4.47741e-06)
(-4.3781e-06 3.09919e-07 3.26656e-08 8.76315e-06 7.49928e-08 -4.38505e-06)
(-4.27483e-06 2.96963e-07 3.85205e-08 8.55602e-06 8.98924e-08 -4.28119e-06)
(-4.15556e-06 2.81443e-07 4.48236e-08 8.31665e-06 1.1037e-07 -4.16109e-06)
(-4.01516e-06 2.63251e-07 5.12147e-08 8.03472e-06 1.37092e-07 -4.01957e-06)
(-3.84882e-06 2.42428e-07 5.72489e-08 7.7005e-06 1.69997e-07 -3.85169e-06)
(-3.65282e-06 2.19239e-07 6.24974e-08 7.30643e-06 2.08217e-07 -3.65361e-06)
(-3.42537e-06 1.94321e-07 6.68713e-08 6.84875e-06 2.50527e-07 -3.42338e-06)
(-3.16665e-06 1.68274e-07 7.08685e-08 6.32755e-06 2.96519e-07 -3.16091e-06)
(-2.87655e-06 1.41712e-07 7.33191e-08 5.74226e-06 3.44917e-07 -2.86571e-06)
(-2.55763e-06 1.15458e-07 7.3333e-08 5.09762e-06 3.92226e-07 -2.53999e-06)
(-2.21564e-06 9.03311e-08 7.03283e-08 4.40489e-06 4.33553e-07 -2.18924e-06)
(-1.85966e-06 6.71313e-08 6.38815e-08 3.68226e-06 4.62705e-07 -1.82259e-06)
(-1.50227e-06 4.66517e-08 5.39582e-08 2.95557e-06 4.72676e-07 -1.4533e-06)
(-1.15909e-06 2.96391e-08 4.12779e-08 2.25771e-06 4.57407e-07 -1.09862e-06)
(-8.47098e-07 1.66749e-08 2.75086e-08 1.62508e-06 4.1462e-07 -7.77978e-07)
(-5.8152e-07 7.96541e-09 1.49535e-08 1.09063e-06 3.48377e-07 -5.09113e-07)
(-3.72228e-07 3.21502e-09 5.67849e-09 6.75291e-07 2.69257e-07 -3.03063e-07)
(-2.21119e-07 1.2204e-09 8.80888e-10 3.81698e-07 1.91047e-07 -1.60579e-07)
(-1.20692e-07 5.22707e-10 -4.94342e-10 1.92508e-07 1.2373e-07 -7.18159e-08)
(-5.86523e-08 2.49141e-10 -4.29054e-10 8.14519e-08 7.0876e-08 -2.27996e-08)
(-2.22661e-08 9.77855e-11 -1.49582e-10 2.33877e-08 3.10701e-08 -1.12169e-09)
(-3.79785e-09 1.60489e-11 -1.60488e-11 1.89892e-09 5.69682e-09 1.89893e-09)
(-7.28828e-11 2.53702e-13 -1.10085e-13 -1.95709e-11 9.38854e-11 9.24537e-11)
(-5.04211e-14 9.19766e-17 1.29678e-17 -4.57684e-14 2.61177e-14 9.61895e-14)
(-4.64514e-05 2.11311e-07 -1.26612e-06 9.29133e-05 -4.34329e-07 -4.64619e-05)
(-4.80652e-05 6.32752e-07 -1.2254e-06 9.61348e-05 -1.1231e-06 -4.80696e-05)
(-5.04809e-05 1.04628e-06 -1.16571e-06 0.000100965 -1.41911e-06 -5.04839e-05)
(-5.29202e-05 1.43812e-06 -1.12516e-06 0.000105849 -1.37471e-06 -5.29293e-05)
(-5.49812e-05 1.79087e-06 -1.11363e-06 0.000109981 -1.16555e-06 -5.5e-05)
(-5.65866e-05 2.09748e-06 -1.12175e-06 0.000113201 -9.30153e-07 -5.66148e-05)
(-5.77969e-05 2.3594e-06 -1.13658e-06 0.00011563 -7.2183e-07 -5.78334e-05)
(-5.86891e-05 2.58182e-06 -1.15004e-06 0.000117422 -5.42426e-07 -5.87328e-05)
(-5.93196e-05 2.7699e-06 -1.15929e-06 0.000118689 -3.80551e-07 -5.93694e-05)
(-5.97265e-05 2.92784e-06 -1.1645e-06 0.000119508 -2.29292e-07 -5.97816e-05)
(-5.9941e-05 3.05899e-06 -1.16662e-06 0.000119942 -8.83302e-08 -6.00005e-05)
(-5.99933e-05 3.16619e-06 -1.16619e-06 0.00012005 4.00816e-08 -6.00565e-05)
(-5.99124e-05 3.25179e-06 -1.16313e-06 0.000119891 1.54864e-07 -5.99786e-05)
(-5.97238e-05 3.31758e-06 -1.15673e-06 0.000119516 2.57477e-07 -5.97922e-05)
(-5.94472e-05 3.36477e-06 -1.14599e-06 0.000118965 3.51282e-07 -5.95173e-05)
(-5.90966e-05 3.39413e-06 -1.12947e-06 0.000118264 4.4036e-07 -5.91677e-05)
(-5.86802e-05 3.40606e-06 -1.10552e-06 0.000117432 5.28579e-07 -5.87514e-05)
(-5.82018e-05 3.40085e-06 -1.07278e-06 0.000116474 6.17626e-07 -5.82724e-05)
(-5.76642e-05 3.37893e-06 -1.02987e-06 0.000115398 7.06642e-07 -5.77333e-05)
(-5.70706e-05 3.34098e-06 -9.75539e-07 0.000114208 7.94097e-07 -5.71376e-05)
(-5.64245e-05 3.28786e-06 -9.08568e-07 0.000112913 8.80387e-07 -5.64886e-05)
(-5.57273e-05 3.22051e-06 -8.27735e-07 0.000111515 9.70724e-07 -5.57878e-05)
(-5.49773e-05 3.13956e-06 -7.32166e-07 0.000110011 1.07722e-06 -5.50333e-05)
(-5.41924e-05 3.0462e-06 -6.21522e-07 0.000108435 1.2193e-06 -5.42427e-05)
(-5.33283e-05 2.93832e-06 -4.94921e-07 0.000106699 1.4199e-06 -5.33712e-05)
(-5.23472e-05 2.81505e-06 -3.53068e-07 0.000104727 1.7034e-06 -5.238e-05)
(-5.12054e-05 2.67542e-06 -1.97875e-07 0.000102429 2.09226e-06 -5.12238e-05)
(-4.98531e-05 2.51843e-06 -3.31946e-08 9.97034e-05 2.60252e-06 -4.98503e-05)
(-4.82396e-05 2.34329e-06 1.35462e-07 9.64448e-05 3.23968e-06 -4.82052e-05)
(-4.63184e-05 2.15032e-06 3.00759e-07 9.25558e-05 3.99679e-06 -4.62374e-05)
(-4.40551e-05 1.94455e-06 4.56197e-07 8.79618e-05 4.86042e-06 -4.39066e-05)
(-4.14324e-05 1.73322e-06 6.02748e-07 8.26183e-05 5.8303e-06 -4.11859e-05)
(-3.84337e-05 1.52342e-06 7.28832e-07 7.64791e-05 6.89295e-06 -3.80455e-05)
(-3.50632e-05 1.31836e-06 8.24508e-07 6.95386e-05 7.99742e-06 -3.44754e-05)
(-3.13505e-05 1.11831e-06 8.80806e-07 6.18417e-05 9.0644e-06 -3.04912e-05)
(-2.73529e-05 9.21603e-07 8.88089e-07 5.34947e-05 9.97968e-06 -2.61419e-05)
(-2.31613e-05 7.2641e-07 8.38531e-07 4.46879e-05 1.05911e-05 -2.15266e-05)
(-1.89052e-05 5.33789e-07 7.30361e-07 3.57189e-05 1.07273e-05 -1.68137e-05)
(-1.4752e-05 3.51207e-07 5.72106e-07 2.69996e-05 1.02478e-05 -1.22475e-05)
(-1.08947e-05 1.93981e-07 3.84223e-07 1.90202e-05 9.11203e-06 -8.12547e-06)
(-7.52495e-06 8.69082e-08 1.96193e-07 1.22573e-05 7.43609e-06 -4.73235e-06)
(-4.79133e-06 3.35442e-08 6.31404e-08 7.03734e-06 5.48776e-06 -2.24601e-06)
(-2.71462e-06 1.39687e-08 4.45927e-09 3.38421e-06 3.53171e-06 -6.69588e-07)
(-1.21764e-06 6.62686e-09 -6.04494e-09 1.13701e-06 1.74846e-06 8.06377e-08)
(-3.0754e-07 1.95882e-09 -1.95881e-09 1.5377e-07 4.61318e-07 1.5377e-07)
(-2.2266e-08 1.49582e-10 -9.77847e-11 -1.1217e-09 3.10701e-08 2.33877e-08)
(-2.43076e-10 1.42103e-12 -2.72067e-13 -1.47891e-10 2.45669e-10 3.90967e-10)
(-1.80674e-13 5.88725e-16 3.18779e-16 -1.72665e-13 6.53989e-14 3.53339e-13)
(-0.000176412 4.14009e-07 -7.25985e-06 0.000352913 -2.24831e-06 -0.000176502)
(-0.000179992 1.32617e-06 -6.87029e-06 0.000360014 -5.75422e-06 -0.000180022)
(-0.000185284 2.39276e-06 -6.26439e-06 0.000370556 -7.17028e-06 -0.000185272)
(-0.000190554 3.54054e-06 -5.70492e-06 0.000381104 -6.86332e-06 -0.00019055)
(-0.000194957 4.6487e-06 -5.29356e-06 0.000389942 -5.77063e-06 -0.000194985)
(-0.00019835 5.63848e-06 -5.01881e-06 0.00039676 -4.57902e-06 -0.00019841)
(-0.000200877 6.48583e-06 -4.83204e-06 0.000401841 -3.53869e-06 -0.000200964)
(-0.000202715 7.19735e-06 -4.69537e-06 0.00040554 -2.65218e-06 -0.000202825)
(-0.000203999 7.78852e-06 -4.58988e-06 0.000408126 -1.86151e-06 -0.000204127)
(-0.000204821 8.27332e-06 -4.50918e-06 0.000409785 -1.13053e-06 -0.000204964)
(-0.000205255 8.66224e-06 -4.45057e-06 0.000410663 -4.54188e-07 -0.000205409)
(-0.000205366 8.96296e-06 -4.4098e-06 0.000410894 1.60242e-07 -0.000205528)
(-0.000205216 9.18133e-06 -4.3804e-06 0.000410598 7.10261e-07 -0.000205383)
(-0.000204857 9.3219e-06 -4.35404e-06 0.000409883 1.20452e-06 -0.000205027)
(-0.000204331 9.38859e-06 -4.32237e-06 0.000408832 1.66014e-06 -0.000204501)
(-0.000203668 9.38548e-06 -4.27651e-06 0.000407504 2.09759e-06 -0.000203835)
(-0.000202887 9.31717e-06 -4.20807e-06 0.000405935 2.53662e-06 -0.000203048)
(-0.000201993 9.18936e-06 -4.11109e-06 0.000404138 2.98741e-06 -0.000202145)
(-0.000200987 9.00891e-06 -3.98008e-06 0.000402114 3.44887e-06 -0.000201128)
(-0.000199864 8.78332e-06 -3.81012e-06 0.000399855 3.91722e-06 -0.000199991)
(-0.000198616 8.52016e-06 -3.59613e-06 0.000397343 4.39803e-06 -0.000198727)
(-0.000197229 8.22654e-06 -3.33188e-06 0.000394549 4.92033e-06 -0.000197321)
(-0.000195693 7.90837e-06 -3.00912e-06 0.000391456 5.5461e-06 -0.000195763)
(-0.00019404 7.57027e-06 -2.62241e-06 0.000388121 6.36959e-06 -0.000194081)
(-0.000192156 7.21071e-06 -2.17327e-06 0.000384313 7.5067e-06 -0.000192157)
(-0.000189953 6.83047e-06 -1.66634e-06 0.000379848 9.08663e-06 -0.000189895)
(-0.00018733 6.42922e-06 -1.10957e-06 0.000374512 1.12347e-05 -0.000187182)
(-0.000184171 6.00514e-06 -5.17738e-07 0.000368051 1.40561e-05 -0.00018388)
(-0.000180347 5.5538e-06 9.0045e-08 0.000360179 1.76206e-05 -0.000179832)
(-0.000175725 5.06607e-06 6.85689e-07 0.000350586 2.19576e-05 -0.000174861)
(-0.00017017 4.53598e-06 1.24691e-06 0.000338947 2.70771e-05 -0.000168777)
(-0.000163524 4.00997e-06 1.91072e-06 0.000324861 3.30181e-05 -0.000161337)
(-0.000155754 3.5658e-06 2.50153e-06 0.000308143 3.97879e-05 -0.000152389)
(-0.000146834 3.20128e-06 2.97336e-06 0.00028859 4.72602e-05 -0.000141756)
(-0.000136764 2.90246e-06 3.31066e-06 0.000266028 5.5175e-05 -0.000129264)
(-0.000125574 2.64196e-06 3.5061e-06 0.000240338 6.30715e-05 -0.000114764)
(-0.00011331 2.37271e-06 3.56472e-06 0.000211515 7.01953e-05 -9.82054e-05)
(-0.000100022 2.03135e-06 3.49394e-06 0.000179762 7.54476e-05 -7.97398e-05)
(-8.57448e-05 1.55722e-06 3.27356e-06 0.000145633 7.74341e-05 -5.98886e-05)
(-7.04983e-05 9.2943e-07 2.81283e-06 0.000110208 7.46492e-05 -3.97095e-05)
(-5.43084e-05 3.67851e-07 1.89981e-06 7.52244e-05 6.57979e-05 -2.09159e-05)
(-3.7485e-05 5.63718e-08 8.50119e-07 4.3346e-05 5.05673e-05 -5.86101e-06)
(-2.09893e-05 -7.49625e-09 1.80846e-07 1.81604e-05 3.05373e-05 2.82891e-06)
(-7.61083e-06 1.13449e-08 -1.13448e-08 3.80541e-06 1.14163e-05 3.80542e-06)
(-1.21764e-06 6.04497e-09 -6.62682e-09 8.06367e-08 1.74845e-06 1.13701e-06)
(-5.86523e-08 4.29055e-10 -2.49139e-10 -2.27996e-08 7.08759e-08 8.14518e-08)
(-6.0801e-10 4.346e-12 -1.7485e-13 -4.67477e-10 4.86424e-10 1.07549e-09)
(-4.79684e-13 2.05389e-15 2.02766e-15 -4.67643e-13 1.31117e-13 9.47327e-13)
(-0.000313856 2.59069e-07 -5.63033e-06 0.000627715 -5.2749e-06 -0.00031386)
(-0.000317019 1.01911e-06 -4.48874e-06 0.000633871 -1.34318e-05 -0.000316852)
(-0.000321761 2.23682e-06 -2.81049e-06 0.000643249 -1.66407e-05 -0.000321488)
(-0.000326581 3.76299e-06 -1.17599e-06 0.000652922 -1.58775e-05 -0.00032634)
(-0.000330696 5.34628e-06 1.37899e-07 0.000661241 -1.33451e-05 -0.000330545)
(-0.000333905 6.80517e-06 1.11378e-06 0.000667746 -1.06003e-05 -0.000333841)
(-0.000336298 8.06273e-06 1.83467e-06 0.000672597 -8.20394e-06 -0.000336299)
(-0.000338026 9.10596e-06 2.37863e-06 0.000676101 -6.16502e-06 -0.000338075)
(-0.000339225 9.94804e-06 2.79413e-06 0.000678535 -4.35686e-06 -0.000339311)
(-0.000339998 1.06058e-05 3.10635e-06 0.00068011 -2.69702e-06 -0.000340111)
(-0.000340429 1.1093e-05 3.33222e-06 0.000680988 -1.16853e-06 -0.000340559)
(-0.000340586 1.14191e-05 3.4902e-06 0.000681312 2.18995e-07 -0.000340726)
(-0.000340532 1.1591e-05 3.60176e-06 0.000681206 1.4652e-06 -0.000340674)
(-0.000340323 1.16142e-05 3.69042e-06 0.000680784 2.59256e-06 -0.000340461)
(-0.000340005 1.14949e-05 3.77747e-06 0.00068014 3.64104e-06 -0.000340135)
(-0.000339616 1.12421e-05 3.88267e-06 0.000679349 4.65786e-06 -0.000339733)
(-0.00033918 1.08682e-05 4.02195e-06 0.00067846 5.68922e-06 -0.00033928)
(-0.000338703 1.03899e-05 4.20313e-06 0.000677484 6.76307e-06 -0.000338782)
(-0.00033817 9.82596e-06 4.43151e-06 0.000676392 7.88644e-06 -0.000338223)
(-0.000337546 9.19476e-06 4.71142e-06 0.000675116 9.06384e-06 -0.00033757)
(-0.000336782 8.51142e-06 5.04935e-06 0.000673555 1.03231e-05 -0.000336774)
(-0.000335821 7.78585e-06 5.45755e-06 0.000671595 1.17447e-05 -0.000335774)
(-0.000334649 7.02352e-06 5.95758e-06 0.000669202 1.34792e-05 -0.000334553)
(-0.000333243 6.22694e-06 6.56935e-06 0.000666322 1.57426e-05 -0.000333079)
(-0.000331478 5.39209e-06 7.29303e-06 0.000662685 1.88056e-05 -0.000331207)
(-0.00032926 4.5124e-06 8.12324e-06 0.000658076 2.29739e-05 -0.000328816)
(-0.000326496 3.58035e-06 9.05022e-06 0.00065226 2.85533e-05 -0.000325765)
(-0.00032308 2.58794e-06 1.00515e-05 0.000644952 3.58211e-05 -0.000321872)
(-0.000318897 1.52421e-06 1.11037e-05 0.000635814 4.50049e-05 -0.000316917)
(-0.000313826 3.6629e-07 1.2164e-05 0.000624446 5.62872e-05 -0.00031062)
(-0.00030777 -9.38437e-07 1.31145e-05 0.000610427 6.98972e-05 -0.000302658)
(-0.000300641 -2.21527e-06 1.381e-05 0.00059326 8.59982e-05 -0.000292619)
(-0.000292392 -3.28074e-06 1.43334e-05 0.00057241 0.000104665 -0.000280018)
(-0.000283083 -4.12495e-06 1.46917e-05 0.000547406 0.000125931 -0.000264323)
(-0.000272825 -4.72126e-06 1.48768e-05 0.00051772 0.0001496 -0.000244894)
(-0.000261734 -5.02287e-06 1.48757e-05 0.000482692 0.000175111 -0.000220958)
(-0.000249796 -4.98006e-06 1.46466e-05 0.000441433 0.000201253 -0.000191638)
(-0.00023663 -4.56279e-06 1.40949e-05 0.000392722 0.000225743 -0.000156092)
(-0.000221117 -3.8404e-06 1.3093e-05 0.000335036 0.000244621 -0.000113919)
(-0.000200836 -3.28765e-06 1.15259e-05 0.000266917 0.000251368 -6.60811e-05)
(-0.000171083 -2.65506e-06 8.26069e-06 0.000188012 0.000235439 -1.69286e-05)
(-0.000125969 -1.93327e-06 4.01747e-06 0.000103681 0.000184573 2.22877e-05)
(-6.83914e-05 -9.00172e-07 9.00172e-07 3.41957e-05 0.000102595 3.41957e-05)
(-2.09893e-05 -1.80846e-07 7.49646e-09 2.8289e-06 3.05372e-05 1.81604e-05)
(-2.71462e-06 -4.45919e-09 -1.39686e-08 -6.69589e-07 3.5317e-06 3.38421e-06)
(-1.20692e-07 4.94345e-10 -5.22702e-10 -7.18158e-08 1.23729e-07 1.92508e-07)
(-1.30395e-09 7.75664e-12 6.14992e-13 -1.11332e-09 8.42307e-10 2.41727e-09)
(-1.05896e-12 4.37379e-15 7.38763e-15 -1.04245e-12 2.28573e-13 2.10142e-12)
(-0.000384757 -2.05396e-08 -1.80011e-06 0.000769458 -8.28227e-06 -0.000384701)
(-0.000384765 2.20523e-07 -8.93184e-07 0.00076915 -2.0991e-05 -0.000384385)
(-0.000384772 1.0146e-06 3.15672e-07 0.000768968 -2.58516e-05 -0.000384196)
(-0.000384775 2.22595e-06 1.45812e-06 0.000769035 -2.45489e-05 -0.00038426)
(-0.000384771 3.59134e-06 2.34958e-06 0.000769193 -2.05577e-05 -0.000384422)
(-0.000384763 4.89959e-06 3.00666e-06 0.000769327 -1.6261e-05 -0.000384563)
(-0.000384753 6.03985e-06 3.51097e-06 0.000769413 -1.25107e-05 -0.00038466)
(-0.000384743 6.97052e-06 3.9267e-06 0.000769465 -9.32953e-06 -0.000384723)
(-0.000384733 7.68662e-06 4.28869e-06 0.000769496 -6.53193e-06 -0.000384763)
(-0.000384725 8.19436e-06 4.61128e-06 0.000769514 -3.98941e-06 -0.000384788)
(-0.00038472 8.50124e-06 4.90285e-06 0.000769522 -1.66448e-06 -0.000384801)
(-0.000384718 8.6124e-06 5.17532e-06 0.000769523 4.41565e-07 -0.000384805)
(-0.000384718 8.53128e-06 5.44485e-06 0.000769519 2.33778e-06 -0.000384802)
(-0.00038472 8.2611e-06 5.7305e-06 0.000769514 4.06257e-06 -0.000384793)
(-0.000384724 7.80802e-06 6.04848e-06 0.000769506 5.67707e-06 -0.000384781)
(-0.00038473 7.18421e-06 6.41366e-06 0.000769495 7.25198e-06 -0.000384765)
(-0.000384736 6.40793e-06 6.83789e-06 0.00076948 8.85779e-06 -0.000384744)
(-0.000384741 5.50285e-06 7.32609e-06 0.000769459 1.05444e-05 -0.000384718)
(-0.000384745 4.49388e-06 7.88601e-06 0.000769429 1.23408e-05 -0.000384685)
(-0.000384746 3.40069e-06 8.53153e-06 0.000769389 1.42812e-05 -0.000384643)
(-0.000384744 2.23322e-06 9.28662e-06 0.000769333 1.644e-05 -0.000384589)
(-0.000384736 9.89076e-07 1.01855e-05 0.000769253 1.89675e-05 -0.000384517)
(-0.000384723 -3.43829e-07 1.12685e-05 0.000769135 2.21139e-05 -0.000384412)
(-0.000384701 -1.77951e-06 1.25812e-05 0.00076895 2.62244e-05 -0.000384249)
(-0.000384666 -3.34207e-06 1.41728e-05 0.000768651 3.17311e-05 -0.000383985)
(-0.000384617 -5.0642e-06 1.6077e-05 0.000768163 3.91306e-05 -0.000383547)
(-0.000384546 -6.98087e-06 1.83253e-05 0.000767363 4.89472e-05 -0.000382818)
(-0.000384448 -9.12495e-06 2.0934e-05 0.000766066 6.17079e-05 -0.000381618)
(-0.000384314 -1.1523e-05 2.39227e-05 0.000763994 7.79267e-05 -0.000379679)
(-0.000384137 -1.41797e-05 2.72714e-05 0.000760752 9.81002e-05 -0.000376615)
(-0.000383918 -1.71056e-05 3.07764e-05 0.000755787 0.000122764 -0.000371869)
(-0.00037864 -1.98577e-05 3.26213e-05 0.000738426 0.000150537 -0.000359786)
(-0.000372515 -2.25647e-05 3.40774e-05 0.00071609 0.000182685 -0.000343574)
(-0.000366632 -2.51148e-05 3.53694e-05 0.00068965 0.000219605 -0.000323018)
(-0.000361499 -2.72998e-05 3.63577e-05 0.00065843 0.000261334 -0.000296931)
(-0.000357561 -2.88282e-05 3.68362e-05 0.00062125 0.000307483 -0.00026369)
(-0.000354839 -2.93338e-05 3.65701e-05 0.000575981 0.000356629 -0.000221142)
(-0.000352328 -2.84325e-05 3.53559e-05 0.000519182 0.000405223 -0.000166854)
(-0.000347096 -2.58426e-05 3.30873e-05 0.000446271 0.000445877 -9.91755e-05)
(-0.000333296 -2.26414e-05 2.99534e-05 0.000353091 0.000465534 -1.97958e-05)
(-0.000300635 -1.7363e-05 2.20042e-05 0.000239339 0.000442981 6.12964e-05)
(-0.000231279 -9.96139e-06 9.96138e-06 0.00011564 0.000347205 0.00011564)
(-0.000125969 -4.01747e-06 1.93326e-06 2.22876e-05 0.000184572 0.000103681)
(-3.74849e-05 -8.50117e-07 -5.63719e-08 -5.86103e-06 5.05673e-05 4.3346e-05)
(-4.79132e-06 -6.31403e-08 -3.35441e-08 -2.24601e-06 5.48775e-06 7.03733e-06)
(-2.21118e-07 -8.80882e-10 -1.22039e-09 -1.60579e-07 1.91047e-07 3.81698e-07)
(-2.50009e-09 3.24998e-12 5.63376e-13 -2.25927e-09 1.32222e-09 4.75936e-09)
(-2.05763e-12 4.60509e-15 1.77277e-14 -2.03668e-12 3.59422e-13 4.09431e-12)
(-0.00038463 -3.39242e-07 -1.37903e-05 0.000769336 -1.02102e-05 -0.000384705)
(-0.000384651 -7.39795e-07 -1.29237e-05 0.000768863 -2.60337e-05 -0.000384212)
(-0.00038468 -5.62257e-07 -1.16674e-05 0.000768573 -3.23911e-05 -0.000383893)
(-0.000384707 1.01659e-07 -1.04109e-05 0.00076867 -3.11225e-05 -0.000383964)
(-0.000384725 1.00941e-06 -9.35178e-06 0.000768928 -2.63333e-05 -0.000384203)
(-0.000384737 1.94422e-06 -8.49889e-06 0.00076916 -2.09632e-05 -0.000384423)
(-0.000384745 2.77368e-06 -7.78862e-06 0.000769323 -1.61515e-05 -0.000384578)
(-0.000384749 3.43054e-06 -7.16605e-06 0.000769429 -1.20064e-05 -0.000384679)
(-0.000384753 3.8886e-06 -6.5997e-06 0.000769497 -8.3425e-06 -0.000384744)
(-0.000384757 4.13875e-06 -6.07537e-06 0.00076954 -5.01534e-06 -0.000384782)
(-0.000384762 4.17853e-06 -5.5827e-06 0.000769562 -1.97676e-06 -0.000384801)
(-0.000384767 4.00697e-06 -5.10606e-06 0.000769571 7.78715e-07 -0.000384803)
(-0.000384774 3.62455e-06 -4.62495e-06 0.000769568 3.26888e-06 -0.000384794)
(-0.00038478 3.03413e-06 -4.11653e-06 0.000769557 5.54553e-06 -0.000384776)
(-0.000384787 2.24388e-06 -3.56344e-06 0.000769539 7.68682e-06 -0.000384751)
(-0.000384793 1.26991e-06 -2.95098e-06 0.000769512 9.78266e-06 -0.000384719)
(-0.000384797 1.33559e-07 -2.2673e-06 0.000769476 1.19253e-05 -0.000384679)
(-0.000384798 -1.14157e-06 -1.5067e-06 0.000769426 1.41901e-05 -0.000384627)
(-0.000384796 -2.53628e-06 -6.55002e-07 0.000769358 1.66383e-05 -0.000384562)
(-0.000384788 -4.04354e-06 3.14518e-07 0.000769267 1.93489e-05 -0.000384479)
(-0.000384774 -5.6705e-06 1.44352e-06 0.000769143 2.2453e-05 -0.000384369)
(-0.000384751 -7.43743e-06 2.78747e-06 0.000768967 2.61738e-05 -0.000384216)
(-0.000384717 -9.37438e-06 4.40932e-06 0.000768709 3.08497e-05 -0.000383992)
(-0.000384666 -1.15109e-05 6.37072e-06 0.000768312 3.69223e-05 -0.000383646)
(-0.000384593 -1.3882e-05 8.74602e-06 0.000767686 4.49251e-05 -0.000383094)
(-0.000384486 -1.65208e-05 1.15843e-05 0.000766686 5.54525e-05 -0.000382199)
(-0.000384337 -1.94541e-05 1.49292e-05 0.000765088 6.91193e-05 -0.000380751)
(-0.00038413 -2.26895e-05 1.87863e-05 0.000762562 8.65262e-05 -0.000378432)
(-0.000383854 -2.62024e-05 2.31384e-05 0.000758639 0.00010823 -0.000374785)
(-0.000383501 -2.98939e-05 2.7873e-05 0.000752673 0.000134709 -0.000369172)
(-0.000383076 -3.35842e-05 3.28118e-05 0.000743823 0.000166284 -0.000360747)
(-0.000382602 -3.73176e-05 3.74558e-05 0.000730934 0.000203377 -0.000348332)
(-0.0003821 -4.10556e-05 4.14842e-05 0.000712514 0.000246131 -0.000330414)
(-0.000381629 -4.43081e-05 4.44807e-05 0.000686868 0.000293967 -0.000305239)
(-0.000381286 -4.65002e-05 4.59071e-05 0.000652148 0.000345707 -0.000270862)
(-0.000381175 -4.70951e-05 4.54123e-05 0.000606538 0.000399378 -0.000225363)
(-0.00038135 -4.5812e-05 4.31748e-05 0.000548541 0.000452131 -0.000167191)
(-0.000381762 -4.28405e-05 4.00494e-05 0.000477306 0.00050035 -9.55437e-05)
(-0.000382241 -3.86612e-05 3.73191e-05 0.000392997 0.00053987 -1.07557e-05)
(-0.000382523 -3.62698e-05 3.73783e-05 0.000297153 0.000566448 8.53704e-05)
(-0.000381892 -3.57904e-05 3.57904e-05 0.000190946 0.00057507 0.000190946)
(-0.000300635 -2.20042e-05 1.73629e-05 6.12962e-05 0.000442981 0.000239339)
(-0.000171083 -8.26068e-06 2.65506e-06 -1.69287e-05 0.000235439 0.000188012)
(-5.43084e-05 -1.89981e-06 -3.67852e-07 -2.0916e-05 6.57978e-05 7.52243e-05)
(-7.52494e-06 -1.96193e-07 -8.6908e-08 -4.73235e-06 7.43608e-06 1.22573e-05)