/*--------------------------------*- C++ -*----------------------------------*\
| =========                 |                                                 |
| \\      /  F ield         | OpenFOAM: The Open Source CFD Toolbox           |
|  \\    /   O peration     | Version:  2506                                  |
|   \\  /    A nd           | Website:  www.openfoam.com                      |
|    \\/     M anipulation  |                                                 |
\*---------------------------------------------------------------------------*/
FoamFile
{
    version     2.0;
    format      ascii;
    arch        "LSB;label=32;scalar=64";
    class       volVectorField;
    location    "2137";
    object      U;
}
// * * * * * * * * * * * * * * * * * * * * * * * * * * * * * * * * * * * * * //

dimensions      [0 1 -1 0 0 0 0];

internalField   nonuniform List<vector> 
2304
(
(0.0211034 -8.70794e-05 7.53428e-06)
(0.0213801 -0.00024015 6.80892e-06)
(0.0217834 -0.000349035 5.87134e-06)
(0.022177 -0.000418659 5.14072e-06)
(0.0224982 -0.000463076 4.75355e-06)
(0.0227412 -0.000494709 4.59563e-06)
(0.0229204 -0.000520224 4.55361e-06)
(0.0230508 -0.000542563 4.55025e-06)
(0.0231421 -0.000562841 4.56378e-06)
(0.0232004 -0.000581748 4.59139e-06)
(0.0232302 -0.000599928 4.6389e-06)
(0.0232361 -0.000617996 4.7056e-06)
(0.0232224 -0.000636415 4.78881e-06)
(0.0231927 -0.000655431 4.8801e-06)
(0.02315 -0.000675049 4.97204e-06)
(0.0230965 -0.00069507 5.05405e-06)
(0.0230335 -0.000715058 5.11325e-06)
(0.0229618 -0.000734434 5.14131e-06)
(0.0228823 -0.000752535 5.12744e-06)
(0.0227958 -0.000768629 5.06254e-06)
(0.0227034 -0.00078194 4.93621e-06)
(0.0226056 -0.000791623 4.73711e-06)
(0.0225022 -0.000796791 4.45681e-06)
(0.022391 -0.000796614 4.09694e-06)
(0.022268 -0.000790242 3.63776e-06)
(0.022127 -0.000776851 3.08001e-06)
(0.02196 -0.0007558 2.42672e-06)
(0.0217574 -0.000726759 1.6998e-06)
(0.0215092 -0.000689814 9.25951e-07)
(0.0212056 -0.000645401 1.20445e-07)
(0.0208374 -0.000594113 -7.20581e-07)
(0.0203951 -0.000535036 -1.91602e-06)
(0.0198653 -0.000467259 -3.20784e-06)
(0.0192339 -0.00039171 -4.49801e-06)
(0.0184872 -0.000310201 -5.66979e-06)
(0.0176133 -0.000225672 -6.53363e-06)
(0.0166038 -0.000142601 -6.81036e-06)
(0.0154578 -6.71464e-05 -6.18428e-06)
(0.0141849 -6.47666e-06 -4.45191e-06)
(0.012807 3.30219e-05 -1.74515e-06)
(0.0113563 4.83582e-05 1.35382e-06)
(0.00986755 4.3584e-05 3.41716e-06)
(0.00836878 2.90447e-05 3.69231e-06)
(0.00687567 1.46745e-05 2.72941e-06)
(0.00539277 5.29392e-06 1.47491e-06)
(0.00391501 1.06153e-06 5.30386e-07)
(0.00242542 -2.26952e-08 9.46937e-08)
(0.000880973 -2.08271e-08 2.08251e-08)
(0.063772 -0.000233441 3.60943e-05)
(0.064613 -0.000646912 2.78644e-05)
(0.0658384 -0.000948053 1.69952e-05)
(0.0670344 -0.00114854 7.88808e-06)
(0.0680106 -0.00128276 2.14064e-06)
(0.0687491 -0.00138154 -9.92053e-07)
(0.0692943 -0.0014619 -2.64887e-06)
(0.069691 -0.0015317 -3.60354e-06)
(0.0699688 -0.00159425 -4.16103e-06)
(0.0701462 -0.00165163 -4.3866e-06)
(0.0702373 -0.00170571 -4.27075e-06)
(0.0702556 -0.00175819 -3.83999e-06)
(0.0702139 -0.00181034 -3.15476e-06)
(0.0701238 -0.00186283 -2.31331e-06)
(0.0699943 -0.00191572 -1.41618e-06)
(0.0698317 -0.00196851 -5.8116e-07)
(0.0696402 -0.00202011 6.91031e-08)
(0.0694222 -0.00206907 4.44253e-07)
(0.06918 -0.00211373 4.49825e-07)
(0.0689164 -0.00215229 -6.14163e-09)
(0.0686344 -0.00218283 -1.03034e-06)
(0.068336 -0.00220326 -2.74382e-06)
(0.06802 -0.00221142 -5.24685e-06)
(0.0676806 -0.00220522 -8.60107e-06)
(0.0673052 -0.00218256 -1.29303e-05)
(0.066875 -0.00214145 -1.82335e-05)
(0.0663658 -0.00208039 -2.44234e-05)
(0.0657487 -0.00199865 -3.12697e-05)
(0.0649932 -0.00189646 -3.84858e-05)
(0.0640695 -0.00177492 -4.58891e-05)
(0.0629499 -0.00163557 -5.38217e-05)
(0.0616055 -0.00147687 -6.37587e-05)
(0.0599959 -0.00129746 -7.43055e-05)
(0.0580785 -0.00109995 -8.42822e-05)
(0.0558121 -0.00088893 -9.2457e-05)
(0.0531598 -0.000671505 -9.7019e-05)
(0.0500954 -0.000458155 -9.55254e-05)
(0.0466145 -0.000262982 -8.54626e-05)
(0.0427443 -0.000102293 -6.55367e-05)
(0.0385497 9.17931e-06 -3.74175e-05)
(0.034128 6.37036e-05 -7.05998e-06)
(0.0295883 6.91965e-05 1.48668e-05)
(0.0250188 4.8332e-05 2.24272e-05)
(0.0204704 2.37493e-05 1.88353e-05)
(0.0159598 7.22097e-06 1.10782e-05)
(0.0114769 2.15437e-07 4.37104e-06)
(0.00698714 -8.49128e-07 8.49088e-07)
(0.00242542 -9.47012e-08 2.26845e-08)
(0.107774 -0.000351969 3.45106e-05)
(0.109187 -0.000980107 1.24369e-05)
(0.111247 -0.00144848 -1.68119e-05)
(0.113259 -0.00177236 -4.17886e-05)
(0.114903 -0.00199849 -5.81974e-05)
(0.116149 -0.0021695 -6.77077e-05)
(0.11707 -0.00230961 -7.3183e-05)
(0.11774 -0.00243063 -7.66008e-05)
(0.11821 -0.00253794 -7.87962e-05)
(0.118511 -0.00263505 -7.99805e-05)
(0.118666 -0.00272498 -8.0173e-05)
(0.118698 -0.00281039 -7.94689e-05)
(0.118629 -0.00289326 -7.80507e-05)
(0.118479 -0.00297464 -7.61876e-05)
(0.118261 -0.00305468 -7.41557e-05)
(0.117988 -0.0031327 -7.22646e-05)
(0.117665 -0.0032072 -7.08221e-05)
(0.117297 -0.00327617 -7.00513e-05)
(0.116887 -0.00333733 -7.01736e-05)
(0.116439 -0.00338822 -7.14083e-05)
(0.115959 -0.00342622 -7.40169e-05)
(0.11545 -0.00344855 -7.83102e-05)
(0.11491 -0.00345227 -8.45651e-05)
(0.114329 -0.00343446 -9.29748e-05)
(0.113687 -0.00339222 -0.00010383)
(0.112952 -0.00332289 -0.000117114)
(0.112083 -0.00322447 -0.000132573)
(0.111033 -0.00309599 -0.000149598)
(0.10975 -0.0029378 -0.000167411)
(0.108183 -0.00275149 -0.000185438)
(0.106287 -0.00253973 -0.000204381)
(0.104011 -0.00230121 -0.000227292)
(0.10129 -0.0020349 -0.000250953)
(0.0980526 -0.00174479 -0.000272425)
(0.0942295 -0.00143698 -0.000288681)
(0.0897577 -0.00112045 -0.00029534)
(0.0845905 -0.000808221 -0.000286551)
(0.0787144 -0.000518023 -0.000256314)
(0.0721677 -0.000271196 -0.000201491)
(0.0650527 -8.87813e-05 -0.000125964)
(0.0575312 1.43764e-05 -4.42101e-05)
(0.049795 4.4757e-05 1.69397e-05)
(0.0420059 3.26196e-05 4.17638e-05)
(0.034262 1.05331e-05 3.75888e-05)
(0.0266018 -3.7531e-06 2.17201e-05)
(0.0190192 -7.2505e-06 7.25034e-06)
(0.0114769 -4.3711e-06 -2.15532e-07)
(0.00391501 -5.30397e-07 -1.06156e-06)
(0.152294 -0.000436824 0.000121442)
(0.154233 -0.00122372 8.84383e-05)
(0.157062 -0.00182723 4.45423e-05)
(0.15983 -0.00226261 8.22305e-06)
(0.162098 -0.00257992 -1.43258e-05)
(0.163821 -0.00282626 -2.62052e-05)
(0.165097 -0.00302945 -3.22579e-05)
(0.166027 -0.00320404 -3.57299e-05)
(0.166679 -0.00335731 -3.79667e-05)
(0.167097 -0.00349416 -3.92565e-05)
(0.167313 -0.00361864 -3.95628e-05)
(0.167359 -0.00373424 -3.89668e-05)
(0.167267 -0.00384347 -3.77101e-05)
(0.167061 -0.00394776 -3.61983e-05)
(0.166762 -0.00404739 -3.48794e-05)
(0.166385 -0.00414166 -3.42841e-05)
(0.165939 -0.00422894 -3.49555e-05)
(0.165429 -0.00430703 -3.72965e-05)
(0.164858 -0.00437348 -4.16879e-05)
(0.164233 -0.00442564 -4.84843e-05)
(0.16356 -0.00446078 -5.80886e-05)
(0.162841 -0.004476 -7.09829e-05)
(0.162076 -0.00446815 -8.75954e-05)
(0.161249 -0.00443399 -0.000108241)
(0.160333 -0.00437028 -0.000133469)
(0.159284 -0.00427417 -0.000163319)
(0.158047 -0.0041435 -0.000197459)
(0.156558 -0.0039772 -0.000234963)
(0.154744 -0.00377556 -0.000274564)
(0.152538 -0.00354046 -0.000315125)
(0.149871 -0.00327588 -0.000357432)
(0.146677 -0.00298159 -0.00040617)
(0.142864 -0.00265749 -0.000456161)
(0.138338 -0.0023084 -0.000502651)
(0.133004 -0.00194036 -0.000540638)
(0.126774 -0.0015614 -0.00056254)
(0.119575 -0.0011831 -0.000557741)
(0.111376 -0.000822141 -0.000514353)
(0.102208 -0.000500758 -0.000423989)
(0.0921887 -0.000245022 -0.000289329)
(0.0815282 -8.22016e-05 -0.000132935)
(0.0705025 -1.46538e-05 -7.74189e-06)
(0.0593675 -8.30469e-06 5.00438e-05)
(0.0482959 -2.06597e-05 5.06341e-05)
(0.0373701 -2.67436e-05 2.67433e-05)
(0.0266018 -2.17203e-05 3.75281e-06)
(0.0159598 -1.10783e-05 -7.22115e-06)
(0.00539276 -1.47493e-06 -5.29398e-06)
(0.194875 -0.00048376 0.000435715)
(0.197205 -0.00136559 0.000393403)
(0.200612 -0.00206475 0.000335531)
(0.203955 -0.00259243 0.000288637)
(0.206704 -0.00299336 0.000260656)
(0.208799 -0.00331203 0.000246939)
(0.210353 -0.0035764 0.00024058)
(0.211486 -0.00380241 0.000237048)
(0.212279 -0.00399889 0.000234521)
(0.212787 -0.00417197 0.00023269)
(0.213049 -0.00432662 0.000231695)
(0.213106 -0.00446692 0.000231498)
(0.212993 -0.00459582 0.000231809)
(0.212742 -0.00471501 0.000232087)
(0.212379 -0.00482496 0.000231706)
(0.21192 -0.00492515 0.000229901)
(0.211375 -0.00501409 0.00022586)
(0.210751 -0.00508977 0.00021894)
(0.210051 -0.00515002 0.000208497)
(0.209282 -0.00519253 0.0001939)
(0.208447 -0.00521495 0.000174453)
(0.207551 -0.00521478 0.000149366)
(0.206587 -0.00518921 0.000117916)
(0.205536 -0.00513504 7.94785e-05)
(0.204364 -0.00504908 3.33433e-05)
(0.203019 -0.00492867 -2.05907e-05)
(0.201435 -0.00477172 -8.19372e-05)
(0.199533 -0.00457711 -0.000149496)
(0.197231 -0.00434492 -0.000221521)
(0.194443 -0.00407677 -0.000296039)
(0.191086 -0.00377757 -0.000372828)
(0.187073 -0.0034494 -0.000456548)
(0.1823 -0.00309501 -0.000541689)
(0.176659 -0.0027197 -0.000623305)
(0.170036 -0.00232832 -0.000695799)
(0.162323 -0.00192611 -0.000749896)
(0.153421 -0.00152007 -0.000771659)
(0.143265 -0.00112105 -0.000743665)
(0.131853 -0.000746226 -0.000649548)
(0.119272 -0.000421669 -0.000482499)
(0.105722 -0.00019156 -0.000260308)
(0.091528 -7.62706e-05 -6.3915e-05)
(0.077051 -4.64472e-05 3.80861e-05)
(0.0625813 -5.05535e-05 5.05529e-05)
(0.0482959 -5.06345e-05 2.06592e-05)
(0.034262 -3.75891e-05 -1.05336e-05)
(0.0204704 -1.88354e-05 -2.37496e-05)
(0.00687567 -2.72942e-06 -1.46746e-05)
(0.232693 -0.00050031 0.000671938)
(0.235248 -0.00142404 0.000603653)
(0.238993 -0.00218115 0.000506752)
(0.242686 -0.00277633 0.000422246)
(0.245741 -0.0032445 0.000364268)
(0.248079 -0.00362372 0.000328431)
(0.249817 -0.00393974 0.000305893)
(0.251082 -0.00420866 0.000290327)
(0.251966 -0.00444024 0.000278795)
(0.252528 -0.00464152 0.000270405)
(0.252816 -0.00481812 0.000264917)
(0.252873 -0.00497454 0.000261898)
(0.252742 -0.00511403 0.000260606)
(0.252456 -0.00523849 0.000260006)
(0.252043 -0.00534857 0.000259016)
(0.251523 -0.00544403 0.00025644)
(0.250906 -0.00552374 0.00025111)
(0.250198 -0.00558624 0.000242182)
(0.249403 -0.00562997 0.000228885)
(0.248526 -0.0056533 0.000210504)
(0.247569 -0.00565452 0.000186254)
(0.246533 -0.00563167 0.000155148)
(0.245405 -0.00558231 0.000116046)
(0.244162 -0.00550343 6.80462e-05)
(0.242764 -0.00539197 1.06341e-05)
(0.241151 -0.00524531 -5.60604e-05)
(0.239252 -0.00506136 -0.000131329)
(0.236983 -0.00483888 -0.000213408)
(0.234253 -0.00457755 -0.00029991)
(0.23097 -0.00427781 -0.000387983)
(0.227042 -0.00394229 -0.000477359)
(0.222364 -0.00357795 -0.000584453)
(0.216836 -0.00319608 -0.00069175)
(0.210345 -0.00280138 -0.000791871)
(0.202774 -0.0023981 -0.000879028)
(0.194003 -0.00199045 -0.000944189)
(0.183917 -0.00158302 -0.000974097)
(0.172418 -0.00118213 -0.000951557)
(0.15945 -0.00079792 -0.000857446)
(0.145023 -0.000448271 -0.000673959)
(0.129247 -0.000190581 -0.00039687)
(0.112386 -5.50735e-05 -0.00012734)
(0.0948439 -2.25268e-05 2.2526e-05)
(0.077051 -3.80868e-05 4.64463e-05)
(0.0593675 -5.00442e-05 8.30392e-06)
(0.0420059 -4.17641e-05 -3.26202e-05)
(0.0250188 -2.24273e-05 -4.83324e-05)
(0.00836878 -3.69232e-06 -2.90449e-05)
(0.26487 -0.00050226 0.000639431)
(0.267535 -0.00143873 0.000554798)
(0.27146 -0.00222558 0.000435387)
(0.275361 -0.00286278 0.000329104)
(0.278615 -0.00337685 0.000253652)
(0.281122 -0.00379942 0.000204739)
(0.28299 -0.00415311 0.000172341)
(0.284349 -0.00445308 0.000149066)
(0.285294 -0.00470918 0.00013132)
(0.285891 -0.00492881 0.000117888)
(0.286193 -0.00511792 0.000108326)
(0.286247 -0.00528126 0.000101968)
(0.286096 -0.00542222 9.77876e-05)
(0.285779 -0.00554283 9.44218e-05)
(0.285324 -0.00564397 9.04955e-05)
(0.284751 -0.0057257 8.45405e-05)
(0.284072 -0.00578742 7.5179e-05)
(0.283294 -0.00582835 6.14929e-05)
(0.28242 -0.0058477 4.26539e-05)
(0.281452 -0.00584455 1.78766e-05)
(0.280389 -0.00581767 -1.37829e-05)
(0.279226 -0.00576531 -5.35832e-05)
(0.277947 -0.00568501 -0.000103027)
(0.27652 -0.00557374 -0.000163463)
(0.2749 -0.00542815 -0.0002357)
(0.273023 -0.00524515 -0.000319718)
(0.270815 -0.0050221 -0.000414853)
(0.26819 -0.00475725 -0.000519189)
(0.265057 -0.00444969 -0.000630243)
(0.261323 -0.00409907 -0.000744696)
(0.256898 -0.00370594 -0.000858927)
(0.251687 -0.00328412 -0.000972041)
(0.245583 -0.00284892 -0.00108181)
(0.23848 -0.00240534 -0.00118466)
(0.230263 -0.00195954 -0.00127508)
(0.220813 -0.00151983 -0.00134274)
(0.210009 -0.00109705 -0.00137003)
(0.197733 -0.000705594 -0.00133129)
(0.18388 -0.00036153 -0.00119611)
(0.168384 -7.4308e-05 -0.0009363)
(0.151222 9.46839e-05 -0.000537003)
(0.132453 0.000157548 -0.000157548)
(0.112386 0.00012734 5.50727e-05)
(0.091528 6.39145e-05 7.62696e-05)
(0.0705025 7.74154e-06 1.46528e-05)
(0.049795 -1.69399e-05 -4.47578e-05)
(0.0295883 -1.48669e-05 -6.91971e-05)
(0.00986755 -3.41718e-06 -4.35842e-05)
(0.292327 -0.00049721 0.000721197)
(0.295026 -0.00143023 0.000630361)
(0.299028 -0.0022274 0.000503118)
(0.303044 -0.00288634 0.000389413)
(0.306429 -0.00342762 0.000308173)
(0.309058 -0.00387759 0.000254803)
(0.311026 -0.00425566 0.000218523)
(0.312457 -0.00457543 0.000191435)
(0.313448 -0.00484621 0.000169744)
(0.31407 -0.00507532 0.000152225)
(0.314379 -0.00526872 0.000138461)
(0.314426 -0.00543122 0.000127741)
(0.314255 -0.00556628 0.000118923)
(0.313907 -0.00567603 0.000110481)
(0.313411 -0.00576153 0.000100913)
(0.312787 -0.00582327 8.86337e-05)
(0.31205 -0.0058612 7.21728e-05)
(0.311204 -0.00587519 5.05779e-05)
(0.310253 -0.0058651 2.28997e-05)
(0.309196 -0.00583041 -1.18977e-05)
(0.308028 -0.00577 -5.51673e-05)
(0.306738 -0.00568196 -0.000108694)
(0.305304 -0.00556342 -0.000174512)
(0.303689 -0.00541099 -0.000254469)
(0.301842 -0.00522079 -0.00035002)
(0.299699 -0.00498914 -0.000461439)
(0.297183 -0.00471284 -0.000588243)
(0.294211 -0.00438985 -0.000728392)
(0.290695 -0.00401945 -0.000879229)
(0.286548 -0.00360279 -0.00103668)
(0.281684 -0.00314326 -0.00119519)
(0.276021 -0.00265372 -0.00133881)
(0.269461 -0.0021469 -0.00147415)
(0.261906 -0.0016341 -0.00159848)
(0.253253 -0.00112936 -0.00170306)
(0.243388 -0.000650281 -0.00177321)
(0.232186 -0.000217528 -0.00178683)
(0.219507 0.000146622 -0.0017152)
(0.2052 0.000423604 -0.00152745)
(0.189126 0.000619147 -0.00119183)
(0.17118 0.000654341 -0.000654341)
(0.151222 0.000537002 -9.46841e-05)
(0.129247 0.00039687 0.000190581)
(0.105722 0.000260308 0.000191559)
(0.0815282 0.000132934 8.22005e-05)
(0.0575312 4.42099e-05 -1.43773e-05)
(0.034128 7.05991e-06 -6.37042e-05)
(0.0113563 -1.35383e-06 -4.83584e-05)
(0.316145 -0.000486925 0.000949699)
(0.318817 -0.00140521 0.000846334)
(0.322809 -0.00219981 0.000699536)
(0.326859 -0.00286654 0.000565752)
(0.330312 -0.00342119 0.000467131)
(0.333021 -0.0038858 0.000399525)
(0.335058 -0.00427698 0.000351402)
(0.33654 -0.00460672 0.000314121)
(0.337564 -0.00488356 0.000283424)
(0.338203 -0.00511442 0.000257843)
(0.338514 -0.00530513 0.000236778)
(0.33855 -0.00546038 0.000219266)
(0.338358 -0.00558364 0.00020386)
(0.337978 -0.00567713 0.000188709)
(0.33744 -0.00574213 0.00017207)
(0.336765 -0.00577954 0.000152168)
(0.335967 -0.00578981 0.00012739)
(0.335051 -0.00577331 9.67262e-05)
(0.33402 -0.00573023 5.907e-05)
(0.33287 -0.00566007 1.30943e-05)
(0.331592 -0.00556147 -4.29856e-05)
(0.33017 -0.00543206 -0.00011151)
(0.328575 -0.00526841 -0.000195122)
(0.326768 -0.00506673 -0.000296144)
(0.324693 -0.00482278 -0.000416454)
(0.322287 -0.00453279 -0.000556386)
(0.319475 -0.00419381 -0.000715367)
(0.31618 -0.00380453 -0.000890728)
(0.31232 -0.00336576 -0.0010789)
(0.307815 -0.00288147 -0.00127385)
(0.302586 -0.0023598 -0.00146787)
(0.296555 -0.00181151 -0.0016519)
(0.289642 -0.00125057 -0.00182064)
(0.281762 -0.000696625 -0.001965)
(0.272823 -0.000172348 -0.00207094)
(0.262716 0.000297506 -0.00211899)
(0.251309 0.000688392 -0.00208492)
(0.238446 0.000978737 -0.00194235)
(0.223933 0.00115568 -0.00166757)
(0.207559 0.00123794 -0.00123794)
(0.189126 0.00119183 -0.000619147)
(0.168384 0.0009363 7.43081e-05)
(0.145023 0.000673958 0.000448271)
(0.119272 0.000482499 0.000421668)
(0.0921887 0.000289329 0.000245021)
(0.0650527 0.000125964 8.87803e-05)
(0.0385497 3.74175e-05 -9.17995e-06)
(0.012807 1.74513e-06 -3.30221e-05)
(0.337041 -0.000473939 0.00112711)
(0.339643 -0.00137124 0.00101321)
(0.343562 -0.00215505 0.000849415)
(0.347584 -0.00281949 0.000697788)
(0.351059 -0.00337658 0.000583269)
(0.353812 -0.00384505 0.000502155)
(0.355896 -0.00423939 0.000442293)
(0.357415 -0.00457021 0.000394438)
(0.358462 -0.00484522 0.000353979)
(0.35911 -0.00507084 0.000319288)
(0.359419 -0.00525258 0.000289625)
(0.359443 -0.00539496 0.000263814)
(0.359228 -0.00550139 0.000240139)
(0.358815 -0.00557415 0.000216468)
(0.358233 -0.00561473 0.000190888)
(0.357504 -0.00562439 0.000161492)
(0.356641 -0.00560392 0.000126536)
(0.35565 -0.00555394 8.49139e-05)
(0.354532 -0.00547463 3.52342e-05)
(0.353282 -0.00536518 -2.42968e-05)
(0.351885 -0.00522373 -9.60461e-05)
(0.350322 -0.0050473 -0.000183068)
(0.348559 -0.00483203 -0.000288639)
(0.346553 -0.00457398 -0.000415529)
(0.344248 -0.00426914 -0.00056601)
(0.341584 -0.00391453 -0.000740262)
(0.33849 -0.00350845 -0.000937388)
(0.334896 -0.00305169 -0.00115353)
(0.330731 -0.00254774 -0.00138354)
(0.325922 -0.00200396 -0.00161838)
(0.320399 -0.00143263 -0.00184652)
(0.314091 -0.000848991 -0.00205484)
(0.306927 -0.000272517 -0.00223365)
(0.298831 0.000272172 -0.00236979)
(0.289715 0.000758865 -0.00244565)
(0.279473 0.00116257 -0.00243975)
(0.267971 0.00146284 -0.00232859)
(0.255039 0.00164493 -0.0020895)
(0.240448 0.00170498 -0.00170498)
(0.223933 0.00166757 -0.00115568)
(0.2052 0.00152745 -0.000423603)
(0.18388 0.00119611 0.000361531)
(0.15945 0.000857446 0.000797919)
(0.131853 0.000649548 0.000746225)
(0.102208 0.000423989 0.000500757)
(0.0721677 0.00020149 0.000271195)
(0.0427443 6.55366e-05 0.000102292)
(0.0141849 4.45189e-06 6.4764e-06)
(0.355605 -0.000459578 0.00129429)
(0.358108 -0.00133232 0.00117088)
(0.36191 -0.00209996 0.00099185)
(0.365861 -0.00275489 0.000823682)
(0.36932 -0.00330602 0.000693913)
(0.372092 -0.00376956 0.000599396)
(0.374205 -0.00415853 0.00052748)
(0.375749 -0.00448253 0.000468399)
(0.376812 -0.00474861 0.000417251)
(0.377466 -0.00496264 0.000372287)
(0.377771 -0.00512974 0.000332666)
(0.37778 -0.00525423 0.000297027)
(0.377541 -0.00533942 0.000263413)
(0.377092 -0.0053876 0.000229445)
(0.376463 -0.00540041 0.000193086)
(0.375676 -0.00537935 0.000152316)
(0.374744 -0.00532536 0.000105224)
(0.373672 -0.00523898 5.05249e-05)
(0.37246 -0.00512011 -1.36069e-05)
(0.371099 -0.00496737 -8.95712e-05)
(0.369574 -0.00477827 -0.00018044)
(0.367858 -0.0045494 -0.000289979)
(0.365917 -0.00427677 -0.000421994)
(0.363704 -0.00395701 -0.00057949)
(0.361167 -0.00358715 -0.000764874)
(0.358248 -0.0031661 -0.000977685)
(0.354885 -0.0026947 -0.00121621)
(0.351016 -0.00217712 -0.00147459)
(0.34658 -0.0016206 -0.00174553)
(0.341515 -0.00103644 -0.00201611)
(0.335759 -0.000441262 -0.00227054)
(0.329245 0.000144501 -0.00249143)
(0.321908 0.00069693 -0.0026638)
(0.313673 0.00118977 -0.00277052)
(0.304453 0.00159807 -0.00279221)
(0.294142 0.00190155 -0.00270845)
(0.2826 0.00208745 -0.00249974)
(0.26965 0.0021487 -0.0021487)
(0.255039 0.0020895 -0.00164493)
(0.238446 0.00194235 -0.000978736)
(0.219507 0.0017152 -0.000146621)
(0.197733 0.00133129 0.000705594)
(0.172418 0.000951557 0.00118213)
(0.143265 0.000743665 0.00112105)
(0.111376 0.000514352 0.00082214)
(0.0787144 0.000256314 0.000518022)
(0.0466145 8.54625e-05 0.000262982)
(0.0154578 6.18426e-06 6.71461e-05)
(0.372318 -0.000444254 0.00146587)
(0.374704 -0.00128991 0.00133345)
(0.378359 -0.00203755 0.00113969)
(0.382206 -0.00267782 0.000955013)
(0.38562 -0.00321669 0.000809552)
(0.388388 -0.00366832 0.000700907)
(0.390516 -0.00404479 0.000616035)
(0.392076 -0.00435515 0.000544664)
(0.39315 -0.00460597 0.000481596)
(0.393806 -0.00480265 0.000424959)
(0.394104 -0.00495 0.000373826)
(0.394097 -0.00505206 0.000326665)
(0.393831 -0.00511203 0.000281295)
(0.393344 -0.00513216 0.000235106)
(0.392666 -0.00511415 0.000185956)
(0.391817 -0.0050596 0.000131693)
(0.390809 -0.00496931 7.0143e-05)
(0.389649 -0.00484349 -2.68593e-07)
(0.388334 -0.00468152 -8.194e-05)
(0.386852 -0.00448136 -0.000177996)
(0.385186 -0.00424002 -0.00029221)
(0.383306 -0.00395405 -0.000428924)
(0.381175 -0.00361998 -0.000592219)
(0.378748 -0.00323587 -0.0007849)
(0.375977 -0.00280082 -0.00100907)
(0.372807 -0.00231685 -0.00126285)
(0.369187 -0.00178833 -0.0015431)
(0.365064 -0.00122399 -0.00184099)
(0.360388 -0.000635247 -0.00214669)
(0.355107 -3.73137e-05 -0.00244291)
(0.349166 0.000549925 -0.00270924)
(0.342501 0.00110285 -0.00292342)
(0.335046 0.00159625 -0.00306619)
(0.326725 0.00200529 -0.00311839)
(0.31745 0.00230944 -0.00306185)
(0.307109 0.00249548 -0.00287987)
(0.295557 0.00255831 -0.00255831)
(0.2826 0.00249975 -0.00208745)
(0.267971 0.00232859 -0.00146283)
(0.251309 0.00208492 -0.000688391)
(0.232186 0.00178683 0.00021753)
(0.210009 0.00137003 0.00109705)
(0.183917 0.000974097 0.00158302)
(0.153421 0.000771659 0.00152007)
(0.119575 0.000557741 0.0011831)
(0.0845905 0.000286551 0.00080822)
(0.0500954 9.55253e-05 0.000458155)
(0.0166038 6.81033e-06 0.000142601)
(0.38755 -0.000427909 0.00164029)
(0.389806 -0.0012441 0.0014993)
(0.393295 -0.00196867 0.00129111)
(0.397012 -0.0025904 0.00108965)
(0.400357 -0.00311232 0.000927748)
(0.403104 -0.00354667 0.000803993)
(0.405232 -0.00390488 0.000705092)
(0.4068 -0.0041958 0.000620276)
(0.407878 -0.0044258 0.000544011)
(0.408533 -0.00460002 0.000474279)
(0.408821 -0.00472296 0.000410062)
(0.408796 -0.00479843 0.000349667)
(0.408501 -0.00482952 0.000290701)
(0.407973 -0.00481838 0.000230316)
(0.407242 -0.00476664 0.000166269)
(0.406326 -0.00467582 9.62116e-05)
(0.405238 -0.00454633 1.75712e-05)
(0.403981 -0.00437786 -7.16201e-05)
(0.402553 -0.00416918 -0.000174456)
(0.400939 -0.00391769 -0.000294819)
(0.399119 -0.00362031 -0.000437025)
(0.397062 -0.00327417 -0.000605719)
(0.394732 -0.0028771 -0.00080481)
(0.392085 -0.00242964 -0.00103624)
(0.389078 -0.00193381 -0.00130119)
(0.385664 -0.00139574 -0.00159533)
(0.3818 -0.000823848 -0.00191348)
(0.377443 -0.000231985 -0.00224292)
(0.372551 0.00036426 -0.00257112)
(0.367083 0.000945941 -0.00287702)
(0.360991 0.0014924 -0.00313642)
(0.354216 0.00198 -0.00332255)
(0.346684 0.00238623 -0.00341277)
(0.338315 0.00268975 -0.00338763)
(0.329014 0.00287575 -0.0032331)
(0.318663 0.00293832 -0.00293832)
(0.307109 0.00287987 -0.00249548)
(0.294142 0.00270845 -0.00190154)
(0.279473 0.00243975 -0.00116257)
(0.262716 0.00211899 -0.000297504)
(0.243388 0.0017732 0.000650283)
(0.220813 0.00134274 0.00151983)
(0.194003 0.000944189 0.00199045)
(0.162323 0.000749896 0.00192611)
(0.126774 0.00056254 0.0015614)
(0.0897577 0.000295339 0.00112045)
(0.0531598 9.7019e-05 0.000671504)
(0.0176133 6.53361e-06 0.000225671)
(0.40158 -0.000410326 0.00181568)
(0.403701 -0.00119443 0.00166656)
(0.40701 -0.00189304 0.00144418)
(0.410581 -0.0024931 0.0012256)
(0.413838 -0.00299456 0.00104633)
(0.416544 -0.00340757 0.000906284)
(0.41866 -0.00374298 0.000792108)
(0.420226 -0.00400967 0.000692578)
(0.421303 -0.00421411 0.000601777)
(0.421953 -0.00436132 0.000517492)
(0.422229 -0.00445564 0.000438599)
(0.422181 -0.00450071 0.000363238)
(0.421854 -0.0044995 0.000288802)
(0.421282 -0.004454 0.000212175)
(0.420492 -0.00436563 0.000130987)
(0.419503 -0.00423566 4.26018e-05)
(0.418327 -0.00406395 -5.61125e-05)
(0.416966 -0.00384954 -0.000167583)
(0.415413 -0.00359075 -0.000295655)
(0.413655 -0.00328478 -0.000444853)
(0.411668 -0.00292908 -0.000619729)
(0.409424 -0.00252213 -0.000824791)
(0.406886 -0.00206384 -0.00106312)
(0.404015 -0.00155814 -0.00133492)
(0.400775 -0.00101035 -0.00163969)
(0.397125 -0.000431342 -0.00196946)
(0.393029 0.000166311 -0.0023165)
(0.388457 0.000764046 -0.00266486)
(0.383369 0.00134299 -0.00300324)
(0.377735 0.00187827 -0.00329992)
(0.371515 0.00235228 -0.00352859)
(0.364654 0.0027453 -0.00366087)
(0.357073 0.00304349 -0.00367811)
(0.34868 0.00322876 -0.0035582)
(0.339369 0.00329176 -0.00329175)
(0.329014 0.0032331 -0.00287575)
(0.31745 0.00306185 -0.00230943)
(0.304453 0.00279221 -0.00159806)
(0.289715 0.00244565 -0.000758862)
(0.272823 0.00207094 0.00017235)
(0.253253 0.00170306 0.00112936)
(0.230263 0.00127508 0.00195954)
(0.202774 0.000879029 0.0023981)
(0.170036 0.000695799 0.00232832)
(0.133004 0.000540638 0.00194036)
(0.0942295 0.000288681 0.00143698)
(0.0558121 9.2457e-05 0.000888929)
(0.0184872 5.66977e-06 0.000310201)
(0.414626 -0.000391268 0.00199114)
(0.41661 -0.00114031 0.00183432)
(0.419733 -0.00181003 0.00159805)
(0.423143 -0.00238562 0.00136193)
(0.426295 -0.00286382 0.00116424)
(0.428945 -0.00325244 0.00100648)
(0.431036 -0.00356158 0.00087554)
(0.43259 -0.00380021 0.000759827)
(0.433659 -0.00397508 0.000653005)
(0.434298 -0.00409132 0.000552609)
(0.434556 -0.00415323 0.000457375)
(0.434483 -0.00416438 0.000365253)
(0.434118 -0.00412764 0.000273394)
(0.433495 -0.00404475 0.000178348)
(0.432641 -0.00391679 7.75772e-05)
(0.431572 -0.00374472 -3.19556e-05)
(0.430299 -0.00352773 -0.000154103)
(0.428822 -0.00326433 -0.000291729)
(0.427133 -0.00295276 -0.000449363)
(0.425218 -0.0025906 -0.000631903)
(0.423054 -0.00217656 -0.000843617)
(0.420612 -0.00171133 -0.00108829)
(0.417862 -0.0011974 -0.00136731)
(0.414769 -0.000642557 -0.00167815)
(0.411299 -5.55142e-05 -0.00201793)
(0.407426 0.000548258 -0.00237679)
(0.403115 0.00115112 -0.00274888)
(0.398347 0.00172746 -0.0031035)
(0.393093 0.00225611 -0.00342271)
(0.387313 0.00271698 -0.003685)
(0.380972 0.00309606 -0.00386262)
(0.374024 0.00337915 -0.00392408)
(0.366402 0.00355409 -0.00384511)
(0.357996 0.00361471 -0.0036147)
(0.34868 0.00355821 -0.00322876)
(0.338315 0.00338763 -0.00268975)
(0.326725 0.00311839 -0.00200529)
(0.313673 0.00277052 -0.00118976)
(0.298831 0.00236979 -0.000272169)
(0.281762 0.001965 0.000696628)
(0.261906 0.00159848 0.0016341)
(0.23848 0.00118466 0.00240534)
(0.210345 0.000791871 0.00280138)
(0.176659 0.000623305 0.0027197)
(0.138338 0.000502651 0.0023084)
(0.0980526 0.000272424 0.00174478)
(0.0580785 8.42821e-05 0.00109995)
(0.0192339 4.49799e-06 0.000391709)
(0.426856 -0.000370549 0.00216567)
(0.428704 -0.00108123 0.00200162)
(0.431637 -0.00171893 0.00175182)
(0.434878 -0.00226731 0.00149782)
(0.437912 -0.00271988 0.00128055)
(0.440491 -0.00308175 0.00110346)
(0.442542 -0.003362 0.00095401)
(0.444074 -0.00356957 0.000820394)
(0.445126 -0.00371158 0.000695859)
(0.445746 -0.00379342 0.000577634)
(0.445981 -0.00381953 0.00046427)
(0.445874 -0.0037935 0.000353484)
(0.445465 -0.00371813 0.000242121)
(0.444784 -0.00359483 0.000126289)
(0.443857 -0.00342429 3.24868e-06)
(0.442698 -0.00320719 -0.000130547)
(0.441316 -0.00294211 -0.000279823)
(0.439711 -0.00262736 -0.000447672)
(0.437874 -0.00226171 -0.000639071)
(0.435791 -0.00184376 -0.000858858)
(0.43344 -0.0013743 -0.00111023)
(0.430796 -0.000856772 -0.00139548)
(0.427831 -0.000296813 -0.00171341)
(0.424521 0.000294363 -0.00205917)
(0.420834 0.000902679 -0.00243496)
(0.416756 0.00150328 -0.00281381)
(0.412264 0.00207285 -0.00317998)
(0.407329 0.00259102 -0.00351573)
(0.401928 0.00303922 -0.0037943)
(0.396021 0.00340507 -0.00399975)
(0.38957 0.00367606 -0.00410503)
(0.382526 0.00384612 -0.00408401)
(0.374835 0.0039058 -0.00390579)
(0.366402 0.00384511 -0.00355409)
(0.357073 0.00367811 -0.00304349)
(0.346684 0.00341277 -0.00238623)
(0.335046 0.00306619 -0.00159625)
(0.321908 0.0026638 -0.000696926)
(0.306927 0.00223365 0.000272521)
(0.289642 0.00182064 0.00125058)
(0.269461 0.00147415 0.0021469)
(0.245583 0.00108181 0.00284892)
(0.216836 0.000691751 0.00319608)
(0.1823 0.00054169 0.00309501)
(0.142864 0.000456162 0.00265748)
(0.10129 0.000250953 0.0020349)
(0.0599959 7.43055e-05 0.00129746)
(0.0198653 3.20783e-06 0.000467259)
(0.438402 -0.000348062 0.00233797)
(0.440116 -0.00101686 0.00216725)
(0.44286 -0.00161923 0.00190439)
(0.445926 -0.00213756 0.00163226)
(0.448829 -0.00256223 0.00139426)
(0.451323 -0.00289543 0.00119609)
(0.453322 -0.00314475 0.00102614)
(0.454819 -0.00331893 0.00087263)
(0.455844 -0.0034254 0.000728434)
(0.456435 -0.00346989 0.000590443)
(0.456636 -0.00345713 0.000456979)
(0.456487 -0.00339084 0.00032546)
(0.456023 -0.00327385 0.000192325)
(0.455274 -0.00310719 5.30863e-05)
(0.454262 -0.00289114 -9.51754e-05)
(0.453002 -0.00262639 -0.000256573)
(0.451499 -0.0023111 -0.000436779)
(0.449753 -0.00194389 -0.000638678)
(0.447757 -0.00152488 -0.00086723)
(0.445496 -0.00105422 -0.00112657)
(0.442952 -0.000535528 -0.0014179)
(0.440105 2.49717e-05 -0.00174191)
(0.43693 0.000616415 -0.00210048)
(0.433415 0.00122054 -0.00248064)
(0.429541 0.0018119 -0.00286495)
(0.425288 0.00236792 -0.003238)
(0.420638 0.00286838 -0.0035762)
(0.41556 0.00330053 -0.00386908)
(0.410025 0.00365252 -0.00409541)
(0.404 0.00391437 -0.00423267)
(0.397444 0.00407577 -0.00425318)
(0.390306 0.00413026 -0.00413026)
(0.382526 0.00408402 -0.00384611)
(0.374024 0.00392409 -0.00337914)
(0.364654 0.00366087 -0.0027453)
(0.354216 0.00332256 -0.00198)
(0.342501 0.00292342 -0.00110285)
(0.329245 0.00249143 -0.000144496)
(0.314091 0.00205484 0.000848995)
(0.296555 0.0016519 0.00181151)
(0.276021 0.00133881 0.00265372)
(0.251687 0.000972041 0.00328412)
(0.222364 0.000584453 0.00357796)
(0.187073 0.000456549 0.0034494)
(0.146677 0.00040617 0.00298159)
(0.104011 0.000227292 0.00230121)
(0.0616055 6.37587e-05 0.00147687)
(0.0203951 1.91602e-06 0.000535036)
(0.44937 -0.000323774 0.00250661)
(0.450954 -0.000947082 0.00232982)
(0.45351 -0.00151065 0.00205451)
(0.456396 -0.00199591 0.00176412)
(0.459159 -0.00239036 0.00150431)
(0.461556 -0.00269307 0.00128323)
(0.463488 -0.00290979 0.00109059)
(0.464936 -0.00304868 0.000914898)
(0.46592 -0.00311735 0.000748796)
(0.46647 -0.0031219 0.000588816)
(0.466625 -0.00306745 0.00043302)
(0.46642 -0.00295799 0.000278463)
(0.465888 -0.00279651 0.000121069)